+ 0.5 1 2 tcp 40 ------- 2 1.0 5.0 0 0
- 0.5 1 2 tcp 40 ------- 2 1.0 5.0 0 0
r 0.51032 1 2 tcp 40 ------- 2 1.0 5.0 0 0
+ 0.51032 2 3 tcp 40 ------- 2 1.0 5.0 0 0
- 0.51032 2 3 tcp 40 ------- 2 1.0 5.0 0 0
r 0.52064 2 3 tcp 40 ------- 2 1.0 5.0 0 0
+ 0.52064 3 5 tcp 40 ------- 2 1.0 5.0 0 0
- 0.52064 3 5 tcp 40 ------- 2 1.0 5.0 0 0
r 0.53096 3 5 tcp 40 ------- 2 1.0 5.0 0 0
+ 0.53096 5 3 ack 40 ------- 2 5.0 1.0 0 1
- 0.53096 5 3 ack 40 ------- 2 5.0 1.0 0 1
r 0.54128 5 3 ack 40 ------- 2 5.0 1.0 0 1
+ 0.54128 3 2 ack 40 ------- 2 5.0 1.0 0 1
- 0.54128 3 2 ack 40 ------- 2 5.0 1.0 0 1
r 0.5516 3 2 ack 40 ------- 2 5.0 1.0 0 1
+ 0.5516 2 1 ack 40 ------- 2 5.0 1.0 0 1
- 0.5516 2 1 ack 40 ------- 2 5.0 1.0 0 1
r 0.56192 2 1 ack 40 ------- 2 5.0 1.0 0 1
+ 0.56192 1 2 tcp 1040 ------- 2 1.0 5.0 1 2
- 0.56192 1 2 tcp 1040 ------- 2 1.0 5.0 1 2
+ 0.56192 1 2 tcp 1040 ------- 2 1.0 5.0 2 3
- 0.57024 1 2 tcp 1040 ------- 2 1.0 5.0 2 3
r 0.58024 1 2 tcp 1040 ------- 2 1.0 5.0 1 2
+ 0.58024 2 3 tcp 1040 ------- 2 1.0 5.0 1 2
- 0.58024 2 3 tcp 1040 ------- 2 1.0 5.0 1 2
r 0.58856 1 2 tcp 1040 ------- 2 1.0 5.0 2 3
+ 0.58856 2 3 tcp 1040 ------- 2 1.0 5.0 2 3
- 0.58856 2 3 tcp 1040 ------- 2 1.0 5.0 2 3
r 0.59856 2 3 tcp 1040 ------- 2 1.0 5.0 1 2
+ 0.59856 3 5 tcp 1040 ------- 2 1.0 5.0 1 2
- 0.59856 3 5 tcp 1040 ------- 2 1.0 5.0 1 2
r 0.60688 2 3 tcp 1040 ------- 2 1.0 5.0 2 3
+ 0.60688 3 5 tcp 1040 ------- 2 1.0 5.0 2 3
- 0.60688 3 5 tcp 1040 ------- 2 1.0 5.0 2 3
r 0.61688 3 5 tcp 1040 ------- 2 1.0 5.0 1 2
+ 0.61688 5 3 ack 40 ------- 2 5.0 1.0 1 4
- 0.61688 5 3 ack 40 ------- 2 5.0 1.0 1 4
r 0.6252 3 5 tcp 1040 ------- 2 1.0 5.0 2 3
+ 0.6252 5 3 ack 40 ------- 2 5.0 1.0 2 5
- 0.6252 5 3 ack 40 ------- 2 5.0 1.0 2 5
r 0.6272 5 3 ack 40 ------- 2 5.0 1.0 1 4
+ 0.6272 3 2 ack 40 ------- 2 5.0 1.0 1 4
- 0.6272 3 2 ack 40 ------- 2 5.0 1.0 1 4
r 0.63552 5 3 ack 40 ------- 2 5.0 1.0 2 5
+ 0.63552 3 2 ack 40 ------- 2 5.0 1.0 2 5
- 0.63552 3 2 ack 40 ------- 2 5.0 1.0 2 5
r 0.63752 3 2 ack 40 ------- 2 5.0 1.0 1 4
+ 0.63752 2 1 ack 40 ------- 2 5.0 1.0 1 4
- 0.63752 2 1 ack 40 ------- 2 5.0 1.0 1 4
r 0.64584 3 2 ack 40 ------- 2 5.0 1.0 2 5
+ 0.64584 2 1 ack 40 ------- 2 5.0 1.0 2 5
- 0.64584 2 1 ack 40 ------- 2 5.0 1.0 2 5
r 0.64784 2 1 ack 40 ------- 2 5.0 1.0 1 4
+ 0.64784 1 2 tcp 1040 ------- 2 1.0 5.0 3 6
- 0.64784 1 2 tcp 1040 ------- 2 1.0 5.0 3 6
+ 0.64784 1 2 tcp 1040 ------- 2 1.0 5.0 4 7
r 0.65616 2 1 ack 40 ------- 2 5.0 1.0 2 5
+ 0.65616 1 2 tcp 1040 ------- 2 1.0 5.0 5 8
+ 0.65616 1 2 tcp 1040 ------- 2 1.0 5.0 6 9
- 0.65616 1 2 tcp 1040 ------- 2 1.0 5.0 4 7
- 0.66448 1 2 tcp 1040 ------- 2 1.0 5.0 5 8
r 0.66616 1 2 tcp 1040 ------- 2 1.0 5.0 3 6
+ 0.66616 2 3 tcp 1040 ------- 2 1.0 5.0 3 6
- 0.66616 2 3 tcp 1040 ------- 2 1.0 5.0 3 6
- 0.6728 1 2 tcp 1040 ------- 2 1.0 5.0 6 9
r 0.67448 1 2 tcp 1040 ------- 2 1.0 5.0 4 7
+ 0.67448 2 3 tcp 1040 ------- 2 1.0 5.0 4 7
- 0.67448 2 3 tcp 1040 ------- 2 1.0 5.0 4 7
r 0.6828 1 2 tcp 1040 ------- 2 1.0 5.0 5 8
+ 0.6828 2 3 tcp 1040 ------- 2 1.0 5.0 5 8
- 0.6828 2 3 tcp 1040 ------- 2 1.0 5.0 5 8
r 0.68448 2 3 tcp 1040 ------- 2 1.0 5.0 3 6
+ 0.68448 3 5 tcp 1040 ------- 2 1.0 5.0 3 6
- 0.68448 3 5 tcp 1040 ------- 2 1.0 5.0 3 6
r 0.69112 1 2 tcp 1040 ------- 2 1.0 5.0 6 9
+ 0.69112 2 3 tcp 1040 ------- 2 1.0 5.0 6 9
- 0.69112 2 3 tcp 1040 ------- 2 1.0 5.0 6 9
r 0.6928 2 3 tcp 1040 ------- 2 1.0 5.0 4 7
+ 0.6928 3 5 tcp 1040 ------- 2 1.0 5.0 4 7
- 0.6928 3 5 tcp 1040 ------- 2 1.0 5.0 4 7
r 0.70112 2 3 tcp 1040 ------- 2 1.0 5.0 5 8
+ 0.70112 3 5 tcp 1040 ------- 2 1.0 5.0 5 8
- 0.70112 3 5 tcp 1040 ------- 2 1.0 5.0 5 8
r 0.7028 3 5 tcp 1040 ------- 2 1.0 5.0 3 6
+ 0.7028 5 3 ack 40 ------- 2 5.0 1.0 3 10
- 0.7028 5 3 ack 40 ------- 2 5.0 1.0 3 10
r 0.70944 2 3 tcp 1040 ------- 2 1.0 5.0 6 9
+ 0.70944 3 5 tcp 1040 ------- 2 1.0 5.0 6 9
- 0.70944 3 5 tcp 1040 ------- 2 1.0 5.0 6 9
r 0.71112 3 5 tcp 1040 ------- 2 1.0 5.0 4 7
+ 0.71112 5 3 ack 40 ------- 2 5.0 1.0 4 11
- 0.71112 5 3 ack 40 ------- 2 5.0 1.0 4 11
r 0.71312 5 3 ack 40 ------- 2 5.0 1.0 3 10
+ 0.71312 3 2 ack 40 ------- 2 5.0 1.0 3 10
- 0.71312 3 2 ack 40 ------- 2 5.0 1.0 3 10
r 0.71944 3 5 tcp 1040 ------- 2 1.0 5.0 5 8
+ 0.71944 5 3 ack 40 ------- 2 5.0 1.0 5 12
- 0.71944 5 3 ack 40 ------- 2 5.0 1.0 5 12
r 0.72144 5 3 ack 40 ------- 2 5.0 1.0 4 11
+ 0.72144 3 2 ack 40 ------- 2 5.0 1.0 4 11
- 0.72144 3 2 ack 40 ------- 2 5.0 1.0 4 11
r 0.72344 3 2 ack 40 ------- 2 5.0 1.0 3 10
+ 0.72344 2 1 ack 40 ------- 2 5.0 1.0 3 10
- 0.72344 2 1 ack 40 ------- 2 5.0 1.0 3 10
r 0.72776 3 5 tcp 1040 ------- 2 1.0 5.0 6 9
+ 0.72776 5 3 ack 40 ------- 2 5.0 1.0 6 13
- 0.72776 5 3 ack 40 ------- 2 5.0 1.0 6 13
r 0.72976 5 3 ack 40 ------- 2 5.0 1.0 5 12
+ 0.72976 3 2 ack 40 ------- 2 5.0 1.0 5 12
- 0.72976 3 2 ack 40 ------- 2 5.0 1.0 5 12
r 0.73176 3 2 ack 40 ------- 2 5.0 1.0 4 11
+ 0.73176 2 1 ack 40 ------- 2 5.0 1.0 4 11
- 0.73176 2 1 ack 40 ------- 2 5.0 1.0 4 11
r 0.73376 2 1 ack 40 ------- 2 5.0 1.0 3 10
+ 0.73376 1 2 tcp 1040 ------- 2 1.0 5.0 7 14
- 0.73376 1 2 tcp 1040 ------- 2 1.0 5.0 7 14
+ 0.73376 1 2 tcp 1040 ------- 2 1.0 5.0 8 15
r 0.73808 5 3 ack 40 ------- 2 5.0 1.0 6 13
+ 0.73808 3 2 ack 40 ------- 2 5.0 1.0 6 13
- 0.73808 3 2 ack 40 ------- 2 5.0 1.0 6 13
r 0.74008 3 2 ack 40 ------- 2 5.0 1.0 5 12
+ 0.74008 2 1 ack 40 ------- 2 5.0 1.0 5 12
- 0.74008 2 1 ack 40 ------- 2 5.0 1.0 5 12
r 0.74208 2 1 ack 40 ------- 2 5.0 1.0 4 11
+ 0.74208 1 2 tcp 1040 ------- 2 1.0 5.0 9 16
+ 0.74208 1 2 tcp 1040 ------- 2 1.0 5.0 10 17
- 0.74208 1 2 tcp 1040 ------- 2 1.0 5.0 8 15
r 0.7484 3 2 ack 40 ------- 2 5.0 1.0 6 13
+ 0.7484 2 1 ack 40 ------- 2 5.0 1.0 6 13
- 0.7484 2 1 ack 40 ------- 2 5.0 1.0 6 13
r 0.7504 2 1 ack 40 ------- 2 5.0 1.0 5 12
+ 0.7504 1 2 tcp 1040 ------- 2 1.0 5.0 11 18
+ 0.7504 1 2 tcp 1040 ------- 2 1.0 5.0 12 19
- 0.7504 1 2 tcp 1040 ------- 2 1.0 5.0 9 16
r 0.75208 1 2 tcp 1040 ------- 2 1.0 5.0 7 14
+ 0.75208 2 3 tcp 1040 ------- 2 1.0 5.0 7 14
- 0.75208 2 3 tcp 1040 ------- 2 1.0 5.0 7 14
r 0.75872 2 1 ack 40 ------- 2 5.0 1.0 6 13
+ 0.75872 1 2 tcp 1040 ------- 2 1.0 5.0 13 20
+ 0.75872 1 2 tcp 1040 ------- 2 1.0 5.0 14 21
- 0.75872 1 2 tcp 1040 ------- 2 1.0 5.0 10 17
r 0.7604 1 2 tcp 1040 ------- 2 1.0 5.0 8 15
+ 0.7604 2 3 tcp 1040 ------- 2 1.0 5.0 8 15
- 0.7604 2 3 tcp 1040 ------- 2 1.0 5.0 8 15
- 0.76704 1 2 tcp 1040 ------- 2 1.0 5.0 11 18
r 0.76872 1 2 tcp 1040 ------- 2 1.0 5.0 9 16
+ 0.76872 2 3 tcp 1040 ------- 2 1.0 5.0 9 16
- 0.76872 2 3 tcp 1040 ------- 2 1.0 5.0 9 16
r 0.7704 2 3 tcp 1040 ------- 2 1.0 5.0 7 14
+ 0.7704 3 5 tcp 1040 ------- 2 1.0 5.0 7 14
- 0.7704 3 5 tcp 1040 ------- 2 1.0 5.0 7 14
- 0.77536 1 2 tcp 1040 ------- 2 1.0 5.0 12 19
r 0.77704 1 2 tcp 1040 ------- 2 1.0 5.0 10 17
+ 0.77704 2 3 tcp 1040 ------- 2 1.0 5.0 10 17
- 0.77704 2 3 tcp 1040 ------- 2 1.0 5.0 10 17
r 0.77872 2 3 tcp 1040 ------- 2 1.0 5.0 8 15
+ 0.77872 3 5 tcp 1040 ------- 2 1.0 5.0 8 15
- 0.77872 3 5 tcp 1040 ------- 2 1.0 5.0 8 15
- 0.78368 1 2 tcp 1040 ------- 2 1.0 5.0 13 20
r 0.78536 1 2 tcp 1040 ------- 2 1.0 5.0 11 18
+ 0.78536 2 3 tcp 1040 ------- 2 1.0 5.0 11 18
- 0.78536 2 3 tcp 1040 ------- 2 1.0 5.0 11 18
r 0.78704 2 3 tcp 1040 ------- 2 1.0 5.0 9 16
+ 0.78704 3 5 tcp 1040 ------- 2 1.0 5.0 9 16
- 0.78704 3 5 tcp 1040 ------- 2 1.0 5.0 9 16
r 0.78872 3 5 tcp 1040 ------- 2 1.0 5.0 7 14
+ 0.78872 5 3 ack 40 ------- 2 5.0 1.0 7 22
- 0.78872 5 3 ack 40 ------- 2 5.0 1.0 7 22
- 0.792 1 2 tcp 1040 ------- 2 1.0 5.0 14 21
r 0.79368 1 2 tcp 1040 ------- 2 1.0 5.0 12 19
+ 0.79368 2 3 tcp 1040 ------- 2 1.0 5.0 12 19
- 0.79368 2 3 tcp 1040 ------- 2 1.0 5.0 12 19
r 0.79536 2 3 tcp 1040 ------- 2 1.0 5.0 10 17
+ 0.79536 3 5 tcp 1040 ------- 2 1.0 5.0 10 17
- 0.79536 3 5 tcp 1040 ------- 2 1.0 5.0 10 17
r 0.79704 3 5 tcp 1040 ------- 2 1.0 5.0 8 15
+ 0.79704 5 3 ack 40 ------- 2 5.0 1.0 8 23
- 0.79704 5 3 ack 40 ------- 2 5.0 1.0 8 23
r 0.79904 5 3 ack 40 ------- 2 5.0 1.0 7 22
+ 0.79904 3 2 ack 40 ------- 2 5.0 1.0 7 22
- 0.79904 3 2 ack 40 ------- 2 5.0 1.0 7 22
r 0.802 1 2 tcp 1040 ------- 2 1.0 5.0 13 20
+ 0.802 2 3 tcp 1040 ------- 2 1.0 5.0 13 20
- 0.802 2 3 tcp 1040 ------- 2 1.0 5.0 13 20
r 0.80368 2 3 tcp 1040 ------- 2 1.0 5.0 11 18
+ 0.80368 3 5 tcp 1040 ------- 2 1.0 5.0 11 18
- 0.80368 3 5 tcp 1040 ------- 2 1.0 5.0 11 18
r 0.80536 3 5 tcp 1040 ------- 2 1.0 5.0 9 16
+ 0.80536 5 3 ack 40 ------- 2 5.0 1.0 9 24
- 0.80536 5 3 ack 40 ------- 2 5.0 1.0 9 24
r 0.80736 5 3 ack 40 ------- 2 5.0 1.0 8 23
+ 0.80736 3 2 ack 40 ------- 2 5.0 1.0 8 23
- 0.80736 3 2 ack 40 ------- 2 5.0 1.0 8 23
r 0.80936 3 2 ack 40 ------- 2 5.0 1.0 7 22
+ 0.80936 2 1 ack 40 ------- 2 5.0 1.0 7 22
- 0.80936 2 1 ack 40 ------- 2 5.0 1.0 7 22
r 0.81032 1 2 tcp 1040 ------- 2 1.0 5.0 14 21
+ 0.81032 2 3 tcp 1040 ------- 2 1.0 5.0 14 21
- 0.81032 2 3 tcp 1040 ------- 2 1.0 5.0 14 21
r 0.812 2 3 tcp 1040 ------- 2 1.0 5.0 12 19
+ 0.812 3 5 tcp 1040 ------- 2 1.0 5.0 12 19
- 0.812 3 5 tcp 1040 ------- 2 1.0 5.0 12 19
r 0.81368 3 5 tcp 1040 ------- 2 1.0 5.0 10 17
+ 0.81368 5 3 ack 40 ------- 2 5.0 1.0 10 25
- 0.81368 5 3 ack 40 ------- 2 5.0 1.0 10 25
r 0.81568 5 3 ack 40 ------- 2 5.0 1.0 9 24
+ 0.81568 3 2 ack 40 ------- 2 5.0 1.0 9 24
- 0.81568 3 2 ack 40 ------- 2 5.0 1.0 9 24
r 0.81768 3 2 ack 40 ------- 2 5.0 1.0 8 23
+ 0.81768 2 1 ack 40 ------- 2 5.0 1.0 8 23
- 0.81768 2 1 ack 40 ------- 2 5.0 1.0 8 23
r 0.81968 2 1 ack 40 ------- 2 5.0 1.0 7 22
+ 0.81968 1 2 tcp 1040 ------- 2 1.0 5.0 15 26
- 0.81968 1 2 tcp 1040 ------- 2 1.0 5.0 15 26
+ 0.81968 1 2 tcp 1040 ------- 2 1.0 5.0 16 27
r 0.82032 2 3 tcp 1040 ------- 2 1.0 5.0 13 20
+ 0.82032 3 5 tcp 1040 ------- 2 1.0 5.0 13 20
- 0.82032 3 5 tcp 1040 ------- 2 1.0 5.0 13 20
r 0.822 3 5 tcp 1040 ------- 2 1.0 5.0 11 18
+ 0.822 5 3 ack 40 ------- 2 5.0 1.0 11 28
- 0.822 5 3 ack 40 ------- 2 5.0 1.0 11 28
r 0.824 5 3 ack 40 ------- 2 5.0 1.0 10 25
+ 0.824 3 2 ack 40 ------- 2 5.0 1.0 10 25
- 0.824 3 2 ack 40 ------- 2 5.0 1.0 10 25
r 0.826 3 2 ack 40 ------- 2 5.0 1.0 9 24
+ 0.826 2 1 ack 40 ------- 2 5.0 1.0 9 24
- 0.826 2 1 ack 40 ------- 2 5.0 1.0 9 24
r 0.828 2 1 ack 40 ------- 2 5.0 1.0 8 23
+ 0.828 1 2 tcp 1040 ------- 2 1.0 5.0 17 29
+ 0.828 1 2 tcp 1040 ------- 2 1.0 5.0 18 30
- 0.828 1 2 tcp 1040 ------- 2 1.0 5.0 16 27
r 0.82864 2 3 tcp 1040 ------- 2 1.0 5.0 14 21
+ 0.82864 3 5 tcp 1040 ------- 2 1.0 5.0 14 21
- 0.82864 3 5 tcp 1040 ------- 2 1.0 5.0 14 21
r 0.83032 3 5 tcp 1040 ------- 2 1.0 5.0 12 19
+ 0.83032 5 3 ack 40 ------- 2 5.0 1.0 12 31
- 0.83032 5 3 ack 40 ------- 2 5.0 1.0 12 31
r 0.83232 5 3 ack 40 ------- 2 5.0 1.0 11 28
+ 0.83232 3 2 ack 40 ------- 2 5.0 1.0 11 28
- 0.83232 3 2 ack 40 ------- 2 5.0 1.0 11 28
r 0.83432 3 2 ack 40 ------- 2 5.0 1.0 10 25
+ 0.83432 2 1 ack 40 ------- 2 5.0 1.0 10 25
- 0.83432 2 1 ack 40 ------- 2 5.0 1.0 10 25
r 0.83632 2 1 ack 40 ------- 2 5.0 1.0 9 24
+ 0.83632 1 2 tcp 1040 ------- 2 1.0 5.0 19 32
+ 0.83632 1 2 tcp 1040 ------- 2 1.0 5.0 20 33
- 0.83632 1 2 tcp 1040 ------- 2 1.0 5.0 17 29
r 0.838 1 2 tcp 1040 ------- 2 1.0 5.0 15 26
+ 0.838 2 3 tcp 1040 ------- 2 1.0 5.0 15 26
- 0.838 2 3 tcp 1040 ------- 2 1.0 5.0 15 26
r 0.83864 3 5 tcp 1040 ------- 2 1.0 5.0 13 20
+ 0.83864 5 3 ack 40 ------- 2 5.0 1.0 13 34
- 0.83864 5 3 ack 40 ------- 2 5.0 1.0 13 34
r 0.84064 5 3 ack 40 ------- 2 5.0 1.0 12 31
+ 0.84064 3 2 ack 40 ------- 2 5.0 1.0 12 31
- 0.84064 3 2 ack 40 ------- 2 5.0 1.0 12 31
r 0.84264 3 2 ack 40 ------- 2 5.0 1.0 11 28
+ 0.84264 2 1 ack 40 ------- 2 5.0 1.0 11 28
- 0.84264 2 1 ack 40 ------- 2 5.0 1.0 11 28
r 0.84464 2 1 ack 40 ------- 2 5.0 1.0 10 25
+ 0.84464 1 2 tcp 1040 ------- 2 1.0 5.0 21 35
+ 0.84464 1 2 tcp 1040 ------- 2 1.0 5.0 22 36
- 0.84464 1 2 tcp 1040 ------- 2 1.0 5.0 18 30
r 0.84632 1 2 tcp 1040 ------- 2 1.0 5.0 16 27
+ 0.84632 2 3 tcp 1040 ------- 2 1.0 5.0 16 27
- 0.84632 2 3 tcp 1040 ------- 2 1.0 5.0 16 27
r 0.84696 3 5 tcp 1040 ------- 2 1.0 5.0 14 21
+ 0.84696 5 3 ack 40 ------- 2 5.0 1.0 14 37
- 0.84696 5 3 ack 40 ------- 2 5.0 1.0 14 37
r 0.84896 5 3 ack 40 ------- 2 5.0 1.0 13 34
+ 0.84896 3 2 ack 40 ------- 2 5.0 1.0 13 34
- 0.84896 3 2 ack 40 ------- 2 5.0 1.0 13 34
r 0.85096 3 2 ack 40 ------- 2 5.0 1.0 12 31
+ 0.85096 2 1 ack 40 ------- 2 5.0 1.0 12 31
- 0.85096 2 1 ack 40 ------- 2 5.0 1.0 12 31
r 0.85296 2 1 ack 40 ------- 2 5.0 1.0 11 28
+ 0.85296 1 2 tcp 1040 ------- 2 1.0 5.0 23 38
+ 0.85296 1 2 tcp 1040 ------- 2 1.0 5.0 24 39
- 0.85296 1 2 tcp 1040 ------- 2 1.0 5.0 19 32
r 0.85464 1 2 tcp 1040 ------- 2 1.0 5.0 17 29
+ 0.85464 2 3 tcp 1040 ------- 2 1.0 5.0 17 29
- 0.85464 2 3 tcp 1040 ------- 2 1.0 5.0 17 29
r 0.85632 2 3 tcp 1040 ------- 2 1.0 5.0 15 26
+ 0.85632 3 5 tcp 1040 ------- 2 1.0 5.0 15 26
- 0.85632 3 5 tcp 1040 ------- 2 1.0 5.0 15 26
r 0.85728 5 3 ack 40 ------- 2 5.0 1.0 14 37
+ 0.85728 3 2 ack 40 ------- 2 5.0 1.0 14 37
- 0.85728 3 2 ack 40 ------- 2 5.0 1.0 14 37
r 0.85928 3 2 ack 40 ------- 2 5.0 1.0 13 34
+ 0.85928 2 1 ack 40 ------- 2 5.0 1.0 13 34
- 0.85928 2 1 ack 40 ------- 2 5.0 1.0 13 34
r 0.86128 2 1 ack 40 ------- 2 5.0 1.0 12 31
+ 0.86128 1 2 tcp 1040 ------- 2 1.0 5.0 25 40
+ 0.86128 1 2 tcp 1040 ------- 2 1.0 5.0 26 41
- 0.86128 1 2 tcp 1040 ------- 2 1.0 5.0 20 33
r 0.86296 1 2 tcp 1040 ------- 2 1.0 5.0 18 30
+ 0.86296 2 3 tcp 1040 ------- 2 1.0 5.0 18 30
- 0.86296 2 3 tcp 1040 ------- 2 1.0 5.0 18 30
r 0.86464 2 3 tcp 1040 ------- 2 1.0 5.0 16 27
+ 0.86464 3 5 tcp 1040 ------- 2 1.0 5.0 16 27
- 0.86464 3 5 tcp 1040 ------- 2 1.0 5.0 16 27
r 0.8676 3 2 ack 40 ------- 2 5.0 1.0 14 37
+ 0.8676 2 1 ack 40 ------- 2 5.0 1.0 14 37
- 0.8676 2 1 ack 40 ------- 2 5.0 1.0 14 37
r 0.8696 2 1 ack 40 ------- 2 5.0 1.0 13 34
+ 0.8696 1 2 tcp 1040 ------- 2 1.0 5.0 27 42
+ 0.8696 1 2 tcp 1040 ------- 2 1.0 5.0 28 43
- 0.8696 1 2 tcp 1040 ------- 2 1.0 5.0 21 35
r 0.87128 1 2 tcp 1040 ------- 2 1.0 5.0 19 32
+ 0.87128 2 3 tcp 1040 ------- 2 1.0 5.0 19 32
- 0.87128 2 3 tcp 1040 ------- 2 1.0 5.0 19 32
r 0.87296 2 3 tcp 1040 ------- 2 1.0 5.0 17 29
+ 0.87296 3 5 tcp 1040 ------- 2 1.0 5.0 17 29
- 0.87296 3 5 tcp 1040 ------- 2 1.0 5.0 17 29
r 0.87464 3 5 tcp 1040 ------- 2 1.0 5.0 15 26
+ 0.87464 5 3 ack 40 ------- 2 5.0 1.0 15 44
- 0.87464 5 3 ack 40 ------- 2 5.0 1.0 15 44
r 0.87792 2 1 ack 40 ------- 2 5.0 1.0 14 37
+ 0.87792 1 2 tcp 1040 ------- 2 1.0 5.0 29 45
+ 0.87792 1 2 tcp 1040 ------- 2 1.0 5.0 30 46
- 0.87792 1 2 tcp 1040 ------- 2 1.0 5.0 22 36
r 0.8796 1 2 tcp 1040 ------- 2 1.0 5.0 20 33
+ 0.8796 2 3 tcp 1040 ------- 2 1.0 5.0 20 33
- 0.8796 2 3 tcp 1040 ------- 2 1.0 5.0 20 33
r 0.88128 2 3 tcp 1040 ------- 2 1.0 5.0 18 30
+ 0.88128 3 5 tcp 1040 ------- 2 1.0 5.0 18 30
- 0.88128 3 5 tcp 1040 ------- 2 1.0 5.0 18 30
r 0.88296 3 5 tcp 1040 ------- 2 1.0 5.0 16 27
+ 0.88296 5 3 ack 40 ------- 2 5.0 1.0 16 47
- 0.88296 5 3 ack 40 ------- 2 5.0 1.0 16 47
r 0.88496 5 3 ack 40 ------- 2 5.0 1.0 15 44
+ 0.88496 3 2 ack 40 ------- 2 5.0 1.0 15 44
- 0.88496 3 2 ack 40 ------- 2 5.0 1.0 15 44
- 0.88624 1 2 tcp 1040 ------- 2 1.0 5.0 23 38
r 0.88792 1 2 tcp 1040 ------- 2 1.0 5.0 21 35
+ 0.88792 2 3 tcp 1040 ------- 2 1.0 5.0 21 35
- 0.88792 2 3 tcp 1040 ------- 2 1.0 5.0 21 35
r 0.8896 2 3 tcp 1040 ------- 2 1.0 5.0 19 32
+ 0.8896 3 5 tcp 1040 ------- 2 1.0 5.0 19 32
- 0.8896 3 5 tcp 1040 ------- 2 1.0 5.0 19 32
r 0.89128 3 5 tcp 1040 ------- 2 1.0 5.0 17 29
+ 0.89128 5 3 ack 40 ------- 2 5.0 1.0 17 48
- 0.89128 5 3 ack 40 ------- 2 5.0 1.0 17 48
r 0.89328 5 3 ack 40 ------- 2 5.0 1.0 16 47
+ 0.89328 3 2 ack 40 ------- 2 5.0 1.0 16 47
- 0.89328 3 2 ack 40 ------- 2 5.0 1.0 16 47
- 0.89456 1 2 tcp 1040 ------- 2 1.0 5.0 24 39
r 0.89528 3 2 ack 40 ------- 2 5.0 1.0 15 44
+ 0.89528 2 1 ack 40 ------- 2 5.0 1.0 15 44
- 0.89528 2 1 ack 40 ------- 2 5.0 1.0 15 44
r 0.89624 1 2 tcp 1040 ------- 2 1.0 5.0 22 36
+ 0.89624 2 3 tcp 1040 ------- 2 1.0 5.0 22 36
- 0.89624 2 3 tcp 1040 ------- 2 1.0 5.0 22 36
r 0.89792 2 3 tcp 1040 ------- 2 1.0 5.0 20 33
+ 0.89792 3 5 tcp 1040 ------- 2 1.0 5.0 20 33
- 0.89792 3 5 tcp 1040 ------- 2 1.0 5.0 20 33
r 0.8996 3 5 tcp 1040 ------- 2 1.0 5.0 18 30
+ 0.8996 5 3 ack 40 ------- 2 5.0 1.0 18 49
- 0.8996 5 3 ack 40 ------- 2 5.0 1.0 18 49
r 0.9016 5 3 ack 40 ------- 2 5.0 1.0 17 48
+ 0.9016 3 2 ack 40 ------- 2 5.0 1.0 17 48
- 0.9016 3 2 ack 40 ------- 2 5.0 1.0 17 48
- 0.90288 1 2 tcp 1040 ------- 2 1.0 5.0 25 40
r 0.9036 3 2 ack 40 ------- 2 5.0 1.0 16 47
+ 0.9036 2 1 ack 40 ------- 2 5.0 1.0 16 47
- 0.9036 2 1 ack 40 ------- 2 5.0 1.0 16 47
r 0.90456 1 2 tcp 1040 ------- 2 1.0 5.0 23 38
+ 0.90456 2 3 tcp 1040 ------- 2 1.0 5.0 23 38
- 0.90456 2 3 tcp 1040 ------- 2 1.0 5.0 23 38
r 0.9056 2 1 ack 40 ------- 2 5.0 1.0 15 44
+ 0.9056 1 2 tcp 1040 ------- 2 1.0 5.0 31 50
+ 0.9056 1 2 tcp 1040 ------- 2 1.0 5.0 32 51
r 0.90624 2 3 tcp 1040 ------- 2 1.0 5.0 21 35
+ 0.90624 3 5 tcp 1040 ------- 2 1.0 5.0 21 35
- 0.90624 3 5 tcp 1040 ------- 2 1.0 5.0 21 35
r 0.90792 3 5 tcp 1040 ------- 2 1.0 5.0 19 32
+ 0.90792 5 3 ack 40 ------- 2 5.0 1.0 19 52
- 0.90792 5 3 ack 40 ------- 2 5.0 1.0 19 52
r 0.90992 5 3 ack 40 ------- 2 5.0 1.0 18 49
+ 0.90992 3 2 ack 40 ------- 2 5.0 1.0 18 49
- 0.90992 3 2 ack 40 ------- 2 5.0 1.0 18 49
- 0.9112 1 2 tcp 1040 ------- 2 1.0 5.0 26 41
r 0.91192 3 2 ack 40 ------- 2 5.0 1.0 17 48
+ 0.91192 2 1 ack 40 ------- 2 5.0 1.0 17 48
- 0.91192 2 1 ack 40 ------- 2 5.0 1.0 17 48
r 0.91288 1 2 tcp 1040 ------- 2 1.0 5.0 24 39
+ 0.91288 2 3 tcp 1040 ------- 2 1.0 5.0 24 39
- 0.91288 2 3 tcp 1040 ------- 2 1.0 5.0 24 39
r 0.91392 2 1 ack 40 ------- 2 5.0 1.0 16 47
+ 0.91392 1 2 tcp 1040 ------- 2 1.0 5.0 33 53
+ 0.91392 1 2 tcp 1040 ------- 2 1.0 5.0 34 54
r 0.91456 2 3 tcp 1040 ------- 2 1.0 5.0 22 36
+ 0.91456 3 5 tcp 1040 ------- 2 1.0 5.0 22 36
- 0.91456 3 5 tcp 1040 ------- 2 1.0 5.0 22 36
r 0.91624 3 5 tcp 1040 ------- 2 1.0 5.0 20 33
+ 0.91624 5 3 ack 40 ------- 2 5.0 1.0 20 55
- 0.91624 5 3 ack 40 ------- 2 5.0 1.0 20 55
r 0.91824 5 3 ack 40 ------- 2 5.0 1.0 19 52
+ 0.91824 3 2 ack 40 ------- 2 5.0 1.0 19 52
- 0.91824 3 2 ack 40 ------- 2 5.0 1.0 19 52
- 0.91952 1 2 tcp 1040 ------- 2 1.0 5.0 27 42
r 0.92024 3 2 ack 40 ------- 2 5.0 1.0 18 49
+ 0.92024 2 1 ack 40 ------- 2 5.0 1.0 18 49
- 0.92024 2 1 ack 40 ------- 2 5.0 1.0 18 49
r 0.9212 1 2 tcp 1040 ------- 2 1.0 5.0 25 40
+ 0.9212 2 3 tcp 1040 ------- 2 1.0 5.0 25 40
- 0.9212 2 3 tcp 1040 ------- 2 1.0 5.0 25 40
r 0.92224 2 1 ack 40 ------- 2 5.0 1.0 17 48
+ 0.92224 1 2 tcp 1040 ------- 2 1.0 5.0 35 56
+ 0.92224 1 2 tcp 1040 ------- 2 1.0 5.0 36 57
r 0.92288 2 3 tcp 1040 ------- 2 1.0 5.0 23 38
+ 0.92288 3 5 tcp 1040 ------- 2 1.0 5.0 23 38
- 0.92288 3 5 tcp 1040 ------- 2 1.0 5.0 23 38
r 0.92456 3 5 tcp 1040 ------- 2 1.0 5.0 21 35
+ 0.92456 5 3 ack 40 ------- 2 5.0 1.0 21 58
- 0.92456 5 3 ack 40 ------- 2 5.0 1.0 21 58
r 0.92656 5 3 ack 40 ------- 2 5.0 1.0 20 55
+ 0.92656 3 2 ack 40 ------- 2 5.0 1.0 20 55
- 0.92656 3 2 ack 40 ------- 2 5.0 1.0 20 55
- 0.92784 1 2 tcp 1040 ------- 2 1.0 5.0 28 43
r 0.92856 3 2 ack 40 ------- 2 5.0 1.0 19 52
+ 0.92856 2 1 ack 40 ------- 2 5.0 1.0 19 52
- 0.92856 2 1 ack 40 ------- 2 5.0 1.0 19 52
r 0.92952 1 2 tcp 1040 ------- 2 1.0 5.0 26 41
+ 0.92952 2 3 tcp 1040 ------- 2 1.0 5.0 26 41
- 0.92952 2 3 tcp 1040 ------- 2 1.0 5.0 26 41
r 0.93056 2 1 ack 40 ------- 2 5.0 1.0 18 49
+ 0.93056 1 2 tcp 1040 ------- 2 1.0 5.0 37 59
+ 0.93056 1 2 tcp 1040 ------- 2 1.0 5.0 38 60
r 0.9312 2 3 tcp 1040 ------- 2 1.0 5.0 24 39
+ 0.9312 3 5 tcp 1040 ------- 2 1.0 5.0 24 39
- 0.9312 3 5 tcp 1040 ------- 2 1.0 5.0 24 39
r 0.93288 3 5 tcp 1040 ------- 2 1.0 5.0 22 36
+ 0.93288 5 3 ack 40 ------- 2 5.0 1.0 22 61
- 0.93288 5 3 ack 40 ------- 2 5.0 1.0 22 61
r 0.93488 5 3 ack 40 ------- 2 5.0 1.0 21 58
+ 0.93488 3 2 ack 40 ------- 2 5.0 1.0 21 58
- 0.93488 3 2 ack 40 ------- 2 5.0 1.0 21 58
- 0.93616 1 2 tcp 1040 ------- 2 1.0 5.0 29 45
r 0.93688 3 2 ack 40 ------- 2 5.0 1.0 20 55
+ 0.93688 2 1 ack 40 ------- 2 5.0 1.0 20 55
- 0.93688 2 1 ack 40 ------- 2 5.0 1.0 20 55
r 0.93784 1 2 tcp 1040 ------- 2 1.0 5.0 27 42
+ 0.93784 2 3 tcp 1040 ------- 2 1.0 5.0 27 42
- 0.93784 2 3 tcp 1040 ------- 2 1.0 5.0 27 42
r 0.93888 2 1 ack 40 ------- 2 5.0 1.0 19 52
+ 0.93888 1 2 tcp 1040 ------- 2 1.0 5.0 39 62
r 0.93952 2 3 tcp 1040 ------- 2 1.0 5.0 25 40
+ 0.93952 3 5 tcp 1040 ------- 2 1.0 5.0 25 40
- 0.93952 3 5 tcp 1040 ------- 2 1.0 5.0 25 40
r 0.9412 3 5 tcp 1040 ------- 2 1.0 5.0 23 38
+ 0.9412 5 3 ack 40 ------- 2 5.0 1.0 23 63
- 0.9412 5 3 ack 40 ------- 2 5.0 1.0 23 63
r 0.9432 5 3 ack 40 ------- 2 5.0 1.0 22 61
+ 0.9432 3 2 ack 40 ------- 2 5.0 1.0 22 61
- 0.9432 3 2 ack 40 ------- 2 5.0 1.0 22 61
- 0.94448 1 2 tcp 1040 ------- 2 1.0 5.0 30 46
r 0.9452 3 2 ack 40 ------- 2 5.0 1.0 21 58
+ 0.9452 2 1 ack 40 ------- 2 5.0 1.0 21 58
- 0.9452 2 1 ack 40 ------- 2 5.0 1.0 21 58
r 0.94616 1 2 tcp 1040 ------- 2 1.0 5.0 28 43
+ 0.94616 2 3 tcp 1040 ------- 2 1.0 5.0 28 43
- 0.94616 2 3 tcp 1040 ------- 2 1.0 5.0 28 43
r 0.9472 2 1 ack 40 ------- 2 5.0 1.0 20 55
+ 0.9472 1 2 tcp 1040 ------- 2 1.0 5.0 40 64
r 0.94784 2 3 tcp 1040 ------- 2 1.0 5.0 26 41
+ 0.94784 3 5 tcp 1040 ------- 2 1.0 5.0 26 41
- 0.94784 3 5 tcp 1040 ------- 2 1.0 5.0 26 41
r 0.94952 3 5 tcp 1040 ------- 2 1.0 5.0 24 39
+ 0.94952 5 3 ack 40 ------- 2 5.0 1.0 24 65
- 0.94952 5 3 ack 40 ------- 2 5.0 1.0 24 65
r 0.95152 5 3 ack 40 ------- 2 5.0 1.0 23 63
+ 0.95152 3 2 ack 40 ------- 2 5.0 1.0 23 63
- 0.95152 3 2 ack 40 ------- 2 5.0 1.0 23 63
- 0.9528 1 2 tcp 1040 ------- 2 1.0 5.0 31 50
r 0.95352 3 2 ack 40 ------- 2 5.0 1.0 22 61
+ 0.95352 2 1 ack 40 ------- 2 5.0 1.0 22 61
- 0.95352 2 1 ack 40 ------- 2 5.0 1.0 22 61
r 0.95448 1 2 tcp 1040 ------- 2 1.0 5.0 29 45
+ 0.95448 2 3 tcp 1040 ------- 2 1.0 5.0 29 45
- 0.95448 2 3 tcp 1040 ------- 2 1.0 5.0 29 45
r 0.95552 2 1 ack 40 ------- 2 5.0 1.0 21 58
+ 0.95552 1 2 tcp 1040 ------- 2 1.0 5.0 41 66
r 0.95616 2 3 tcp 1040 ------- 2 1.0 5.0 27 42
+ 0.95616 3 5 tcp 1040 ------- 2 1.0 5.0 27 42
- 0.95616 3 5 tcp 1040 ------- 2 1.0 5.0 27 42
r 0.95784 3 5 tcp 1040 ------- 2 1.0 5.0 25 40
+ 0.95784 5 3 ack 40 ------- 2 5.0 1.0 25 67
- 0.95784 5 3 ack 40 ------- 2 5.0 1.0 25 67
r 0.95984 5 3 ack 40 ------- 2 5.0 1.0 24 65
+ 0.95984 3 2 ack 40 ------- 2 5.0 1.0 24 65
- 0.95984 3 2 ack 40 ------- 2 5.0 1.0 24 65
- 0.96112 1 2 tcp 1040 ------- 2 1.0 5.0 32 51
r 0.96184 3 2 ack 40 ------- 2 5.0 1.0 23 63
+ 0.96184 2 1 ack 40 ------- 2 5.0 1.0 23 63
- 0.96184 2 1 ack 40 ------- 2 5.0 1.0 23 63
r 0.9628 1 2 tcp 1040 ------- 2 1.0 5.0 30 46
+ 0.9628 2 3 tcp 1040 ------- 2 1.0 5.0 30 46
- 0.9628 2 3 tcp 1040 ------- 2 1.0 5.0 30 46
r 0.96384 2 1 ack 40 ------- 2 5.0 1.0 22 61
+ 0.96384 1 2 tcp 1040 ------- 2 1.0 5.0 42 68
r 0.96448 2 3 tcp 1040 ------- 2 1.0 5.0 28 43
+ 0.96448 3 5 tcp 1040 ------- 2 1.0 5.0 28 43
- 0.96448 3 5 tcp 1040 ------- 2 1.0 5.0 28 43
r 0.96616 3 5 tcp 1040 ------- 2 1.0 5.0 26 41
+ 0.96616 5 3 ack 40 ------- 2 5.0 1.0 26 69
- 0.96616 5 3 ack 40 ------- 2 5.0 1.0 26 69
r 0.96816 5 3 ack 40 ------- 2 5.0 1.0 25 67
+ 0.96816 3 2 ack 40 ------- 2 5.0 1.0 25 67
- 0.96816 3 2 ack 40 ------- 2 5.0 1.0 25 67
- 0.96944 1 2 tcp 1040 ------- 2 1.0 5.0 33 53
r 0.97016 3 2 ack 40 ------- 2 5.0 1.0 24 65
+ 0.97016 2 1 ack 40 ------- 2 5.0 1.0 24 65
- 0.97016 2 1 ack 40 ------- 2 5.0 1.0 24 65
r 0.97112 1 2 tcp 1040 ------- 2 1.0 5.0 31 50
+ 0.97112 2 3 tcp 1040 ------- 2 1.0 5.0 31 50
- 0.97112 2 3 tcp 1040 ------- 2 1.0 5.0 31 50
r 0.97216 2 1 ack 40 ------- 2 5.0 1.0 23 63
+ 0.97216 1 2 tcp 1040 ------- 2 1.0 5.0 43 70
r 0.9728 2 3 tcp 1040 ------- 2 1.0 5.0 29 45
+ 0.9728 3 5 tcp 1040 ------- 2 1.0 5.0 29 45
- 0.9728 3 5 tcp 1040 ------- 2 1.0 5.0 29 45
r 0.97448 3 5 tcp 1040 ------- 2 1.0 5.0 27 42
+ 0.97448 5 3 ack 40 ------- 2 5.0 1.0 27 71
- 0.97448 5 3 ack 40 ------- 2 5.0 1.0 27 71
r 0.97648 5 3 ack 40 ------- 2 5.0 1.0 26 69
+ 0.97648 3 2 ack 40 ------- 2 5.0 1.0 26 69
- 0.97648 3 2 ack 40 ------- 2 5.0 1.0 26 69
- 0.97776 1 2 tcp 1040 ------- 2 1.0 5.0 34 54
r 0.97848 3 2 ack 40 ------- 2 5.0 1.0 25 67
+ 0.97848 2 1 ack 40 ------- 2 5.0 1.0 25 67
- 0.97848 2 1 ack 40 ------- 2 5.0 1.0 25 67
r 0.97944 1 2 tcp 1040 ------- 2 1.0 5.0 32 51
+ 0.97944 2 3 tcp 1040 ------- 2 1.0 5.0 32 51
- 0.97944 2 3 tcp 1040 ------- 2 1.0 5.0 32 51
r 0.98048 2 1 ack 40 ------- 2 5.0 1.0 24 65
+ 0.98048 1 2 tcp 1040 ------- 2 1.0 5.0 44 72
r 0.98112 2 3 tcp 1040 ------- 2 1.0 5.0 30 46
+ 0.98112 3 5 tcp 1040 ------- 2 1.0 5.0 30 46
- 0.98112 3 5 tcp 1040 ------- 2 1.0 5.0 30 46
r 0.9828 3 5 tcp 1040 ------- 2 1.0 5.0 28 43
+ 0.9828 5 3 ack 40 ------- 2 5.0 1.0 28 73
- 0.9828 5 3 ack 40 ------- 2 5.0 1.0 28 73
r 0.9848 5 3 ack 40 ------- 2 5.0 1.0 27 71
+ 0.9848 3 2 ack 40 ------- 2 5.0 1.0 27 71
- 0.9848 3 2 ack 40 ------- 2 5.0 1.0 27 71
- 0.98608 1 2 tcp 1040 ------- 2 1.0 5.0 35 56
r 0.9868 3 2 ack 40 ------- 2 5.0 1.0 26 69
+ 0.9868 2 1 ack 40 ------- 2 5.0 1.0 26 69
- 0.9868 2 1 ack 40 ------- 2 5.0 1.0 26 69
r 0.98776 1 2 tcp 1040 ------- 2 1.0 5.0 33 53
+ 0.98776 2 3 tcp 1040 ------- 2 1.0 5.0 33 53
- 0.98776 2 3 tcp 1040 ------- 2 1.0 5.0 33 53
r 0.9888 2 1 ack 40 ------- 2 5.0 1.0 25 67
+ 0.9888 1 2 tcp 1040 ------- 2 1.0 5.0 45 74
r 0.98944 2 3 tcp 1040 ------- 2 1.0 5.0 31 50
+ 0.98944 3 5 tcp 1040 ------- 2 1.0 5.0 31 50
- 0.98944 3 5 tcp 1040 ------- 2 1.0 5.0 31 50
r 0.99112 3 5 tcp 1040 ------- 2 1.0 5.0 29 45
+ 0.99112 5 3 ack 40 ------- 2 5.0 1.0 29 75
- 0.99112 5 3 ack 40 ------- 2 5.0 1.0 29 75
r 0.99312 5 3 ack 40 ------- 2 5.0 1.0 28 73
+ 0.99312 3 2 ack 40 ------- 2 5.0 1.0 28 73
- 0.99312 3 2 ack 40 ------- 2 5.0 1.0 28 73
- 0.9944 1 2 tcp 1040 ------- 2 1.0 5.0 36 57
r 0.99512 3 2 ack 40 ------- 2 5.0 1.0 27 71
+ 0.99512 2 1 ack 40 ------- 2 5.0 1.0 27 71
- 0.99512 2 1 ack 40 ------- 2 5.0 1.0 27 71
r 0.99608 1 2 tcp 1040 ------- 2 1.0 5.0 34 54
+ 0.99608 2 3 tcp 1040 ------- 2 1.0 5.0 34 54
- 0.99608 2 3 tcp 1040 ------- 2 1.0 5.0 34 54
r 0.99712 2 1 ack 40 ------- 2 5.0 1.0 26 69
+ 0.99712 1 2 tcp 1040 ------- 2 1.0 5.0 46 76
r 0.99776 2 3 tcp 1040 ------- 2 1.0 5.0 32 51
+ 0.99776 3 5 tcp 1040 ------- 2 1.0 5.0 32 51
- 0.99776 3 5 tcp 1040 ------- 2 1.0 5.0 32 51
r 0.99944 3 5 tcp 1040 ------- 2 1.0 5.0 30 46
+ 0.99944 5 3 ack 40 ------- 2 5.0 1.0 30 77
- 0.99944 5 3 ack 40 ------- 2 5.0 1.0 30 77
+ 1 0 2 cbr 210 ------- 1 0.0 4.0 0 78
- 1 0 2 cbr 210 ------- 1 0.0 4.0 0 78
r 1.00144 5 3 ack 40 ------- 2 5.0 1.0 29 75
+ 1.00144 3 2 ack 40 ------- 2 5.0 1.0 29 75
- 1.00144 3 2 ack 40 ------- 2 5.0 1.0 29 75
- 1.00272 1 2 tcp 1040 ------- 2 1.0 5.0 37 59
r 1.00344 3 2 ack 40 ------- 2 5.0 1.0 28 73
+ 1.00344 2 1 ack 40 ------- 2 5.0 1.0 28 73
- 1.00344 2 1 ack 40 ------- 2 5.0 1.0 28 73
+ 1.00375 0 2 cbr 210 ------- 1 0.0 4.0 1 79
- 1.00375 0 2 cbr 210 ------- 1 0.0 4.0 1 79
r 1.0044 1 2 tcp 1040 ------- 2 1.0 5.0 35 56
+ 1.0044 2 3 tcp 1040 ------- 2 1.0 5.0 35 56
- 1.0044 2 3 tcp 1040 ------- 2 1.0 5.0 35 56
r 1.00544 2 1 ack 40 ------- 2 5.0 1.0 27 71
+ 1.00544 1 2 tcp 1040 ------- 2 1.0 5.0 47 80
r 1.00608 2 3 tcp 1040 ------- 2 1.0 5.0 33 53
+ 1.00608 3 5 tcp 1040 ------- 2 1.0 5.0 33 53
- 1.00608 3 5 tcp 1040 ------- 2 1.0 5.0 33 53
+ 1.0075 0 2 cbr 210 ------- 1 0.0 4.0 2 81
- 1.0075 0 2 cbr 210 ------- 1 0.0 4.0 2 81
r 1.00776 3 5 tcp 1040 ------- 2 1.0 5.0 31 50
+ 1.00776 5 3 ack 40 ------- 2 5.0 1.0 31 82
- 1.00776 5 3 ack 40 ------- 2 5.0 1.0 31 82
r 1.00976 5 3 ack 40 ------- 2 5.0 1.0 30 77
+ 1.00976 3 2 ack 40 ------- 2 5.0 1.0 30 77
- 1.00976 3 2 ack 40 ------- 2 5.0 1.0 30 77
- 1.01104 1 2 tcp 1040 ------- 2 1.0 5.0 38 60
+ 1.01125 0 2 cbr 210 ------- 1 0.0 4.0 3 83
- 1.01125 0 2 cbr 210 ------- 1 0.0 4.0 3 83
r 1.01168 0 2 cbr 210 ------- 1 0.0 4.0 0 78
+ 1.01168 2 3 cbr 210 ------- 1 0.0 4.0 0 78
r 1.01176 3 2 ack 40 ------- 2 5.0 1.0 29 75
+ 1.01176 2 1 ack 40 ------- 2 5.0 1.0 29 75
- 1.01176 2 1 ack 40 ------- 2 5.0 1.0 29 75
r 1.01272 1 2 tcp 1040 ------- 2 1.0 5.0 36 57
+ 1.01272 2 3 tcp 1040 ------- 2 1.0 5.0 36 57
- 1.01272 2 3 cbr 210 ------- 1 0.0 4.0 0 78
r 1.01376 2 1 ack 40 ------- 2 5.0 1.0 28 73
+ 1.01376 1 2 tcp 1040 ------- 2 1.0 5.0 48 84
r 1.0144 2 3 tcp 1040 ------- 2 1.0 5.0 34 54
+ 1.0144 3 5 tcp 1040 ------- 2 1.0 5.0 34 54
- 1.0144 3 5 tcp 1040 ------- 2 1.0 5.0 34 54
- 1.0144 2 3 tcp 1040 ------- 2 1.0 5.0 36 57
+ 1.015 0 2 cbr 210 ------- 1 0.0 4.0 4 85
- 1.015 0 2 cbr 210 ------- 1 0.0 4.0 4 85
r 1.01543 0 2 cbr 210 ------- 1 0.0 4.0 1 79
+ 1.01543 2 3 cbr 210 ------- 1 0.0 4.0 1 79
r 1.01608 3 5 tcp 1040 ------- 2 1.0 5.0 32 51
+ 1.01608 5 3 ack 40 ------- 2 5.0 1.0 32 86
- 1.01608 5 3 ack 40 ------- 2 5.0 1.0 32 86
r 1.01808 5 3 ack 40 ------- 2 5.0 1.0 31 82
+ 1.01808 3 2 ack 40 ------- 2 5.0 1.0 31 82
- 1.01808 3 2 ack 40 ------- 2 5.0 1.0 31 82
+ 1.01875 0 2 cbr 210 ------- 1 0.0 4.0 5 87
- 1.01875 0 2 cbr 210 ------- 1 0.0 4.0 5 87
r 1.01918 0 2 cbr 210 ------- 1 0.0 4.0 2 81
+ 1.01918 2 3 cbr 210 ------- 1 0.0 4.0 2 81
- 1.01936 1 2 tcp 1040 ------- 2 1.0 5.0 39 62
r 1.02008 3 2 ack 40 ------- 2 5.0 1.0 30 77
+ 1.02008 2 1 ack 40 ------- 2 5.0 1.0 30 77
- 1.02008 2 1 ack 40 ------- 2 5.0 1.0 30 77
r 1.02104 1 2 tcp 1040 ------- 2 1.0 5.0 37 59
+ 1.02104 2 3 tcp 1040 ------- 2 1.0 5.0 37 59
r 1.02208 2 1 ack 40 ------- 2 5.0 1.0 29 75
+ 1.02208 1 2 tcp 1040 ------- 2 1.0 5.0 49 88
+ 1.0225 0 2 cbr 210 ------- 1 0.0 4.0 6 89
- 1.0225 0 2 cbr 210 ------- 1 0.0 4.0 6 89
r 1.02272 2 3 tcp 1040 ------- 2 1.0 5.0 35 56
+ 1.02272 3 5 tcp 1040 ------- 2 1.0 5.0 35 56
- 1.02272 3 5 tcp 1040 ------- 2 1.0 5.0 35 56
- 1.02272 2 3 cbr 210 ------- 1 0.0 4.0 1 79
r 1.02293 0 2 cbr 210 ------- 1 0.0 4.0 3 83
+ 1.02293 2 3 cbr 210 ------- 1 0.0 4.0 3 83
r 1.0244 3 5 tcp 1040 ------- 2 1.0 5.0 33 53
+ 1.0244 5 3 ack 40 ------- 2 5.0 1.0 33 90
- 1.0244 5 3 ack 40 ------- 2 5.0 1.0 33 90
r 1.0244 2 3 cbr 210 ------- 1 0.0 4.0 0 78
+ 1.0244 3 4 cbr 210 ------- 1 0.0 4.0 0 78
- 1.0244 3 4 cbr 210 ------- 1 0.0 4.0 0 78
- 1.0244 2 3 cbr 210 ------- 1 0.0 4.0 2 81
- 1.02608 2 3 tcp 1040 ------- 2 1.0 5.0 37 59