V -t * -v 1.0a5 -a 0
A -t * -n 1 -p 0 -o 0x7fffffff -c 30 -a 1
A -t * -h 1 -m 1073741823 -s 0
c -t * -i 1 -n green
c -t * -i 2 -n blue
n -t * -a 4 -s 4 -S UP -v circle -c black -i black
n -t * -a 0 -s 0 -S UP -v square -c Red -i Red
n -t * -a 5 -s 5 -S UP -v circle -c black -i black
n -t * -a 1 -s 1 -S UP -v circle -c black -i black
n -t * -a 2 -s 2 -S UP -v circle -c black -i black
n -t * -a 3 -s 3 -S UP -v circle -c black -i black
l -t * -s 0 -d 2 -S UP -r 1000000 -D 0.01 -c red -o right-down
l -t * -s 1 -d 2 -S UP -r 1000000 -D 0.01 -c black -o right-up
l -t * -s 2 -d 3 -S UP -r 1000000 -D 0.01 -c black -o right
l -t * -s 3 -d 4 -S UP -r 1000000 -D 0.01 -c black -o right-up
l -t * -s 3 -d 5 -S UP -r 1000000 -D 0.01 -c black -o right-down
+ -t 0.5 -s 1 -d 2 -p tcp -e 40 -c 2 -i 0 -a 2 -x {1.0 5.0 0 ------- null}
- -t 0.5 -s 1 -d 2 -p tcp -e 40 -c 2 -i 0 -a 2 -x {1.0 5.0 0 ------- null}
h -t 0.5 -s 1 -d 2 -p tcp -e 40 -c 2 -i 0 -a 2 -x {1.0 5.0 -1 ------- null}
r -t 0.51032 -s 1 -d 2 -p tcp -e 40 -c 2 -i 0 -a 2 -x {1.0 5.0 0 ------- null}
+ -t 0.51032 -s 2 -d 3 -p tcp -e 40 -c 2 -i 0 -a 2 -x {1.0 5.0 0 ------- null}
- -t 0.51032 -s 2 -d 3 -p tcp -e 40 -c 2 -i 0 -a 2 -x {1.0 5.0 0 ------- null}
h -t 0.51032 -s 2 -d 3 -p tcp -e 40 -c 2 -i 0 -a 2 -x {1.0 5.0 -1 ------- null}
r -t 0.52064 -s 2 -d 3 -p tcp -e 40 -c 2 -i 0 -a 2 -x {1.0 5.0 0 ------- null}
+ -t 0.52064 -s 3 -d 5 -p tcp -e 40 -c 2 -i 0 -a 2 -x {1.0 5.0 0 ------- null}
- -t 0.52064 -s 3 -d 5 -p tcp -e 40 -c 2 -i 0 -a 2 -x {1.0 5.0 0 ------- null}
h -t 0.52064 -s 3 -d 5 -p tcp -e 40 -c 2 -i 0 -a 2 -x {1.0 5.0 -1 ------- null}
r -t 0.53096 -s 3 -d 5 -p tcp -e 40 -c 2 -i 0 -a 2 -x {1.0 5.0 0 ------- null}
+ -t 0.53096 -s 5 -d 3 -p ack -e 40 -c 2 -i 1 -a 2 -x {5.0 1.0 0 ------- null}
- -t 0.53096 -s 5 -d 3 -p ack -e 40 -c 2 -i 1 -a 2 -x {5.0 1.0 0 ------- null}
h -t 0.53096 -s 5 -d 3 -p ack -e 40 -c 2 -i 1 -a 2 -x {5.0 1.0 -1 ------- null}
r -t 0.54128 -s 5 -d 3 -p ack -e 40 -c 2 -i 1 -a 2 -x {5.0 1.0 0 ------- null}
+ -t 0.54128 -s 3 -d 2 -p ack -e 40 -c 2 -i 1 -a 2 -x {5.0 1.0 0 ------- null}
- -t 0.54128 -s 3 -d 2 -p ack -e 40 -c 2 -i 1 -a 2 -x {5.0 1.0 0 ------- null}
h -t 0.54128 -s 3 -d 2 -p ack -e 40 -c 2 -i 1 -a 2 -x {5.0 1.0 -1 ------- null}
r -t 0.5516 -s 3 -d 2 -p ack -e 40 -c 2 -i 1 -a 2 -x {5.0 1.0 0 ------- null}
+ -t 0.5516 -s 2 -d 1 -p ack -e 40 -c 2 -i 1 -a 2 -x {5.0 1.0 0 ------- null}
- -t 0.5516 -s 2 -d 1 -p ack -e 40 -c 2 -i 1 -a 2 -x {5.0 1.0 0 ------- null}
h -t 0.5516 -s 2 -d 1 -p ack -e 40 -c 2 -i 1 -a 2 -x {5.0 1.0 -1 ------- null}
r -t 0.56192 -s 2 -d 1 -p ack -e 40 -c 2 -i 1 -a 2 -x {5.0 1.0 0 ------- null}
+ -t 0.56192 -s 1 -d 2 -p tcp -e 1040 -c 2 -i 2 -a 2 -x {1.0 5.0 1 ------- null}
- -t 0.56192 -s 1 -d 2 -p tcp -e 1040 -c 2 -i 2 -a 2 -x {1.0 5.0 1 ------- null}
h -t 0.56192 -s 1 -d 2 -p tcp -e 1040 -c 2 -i 2 -a 2 -x {1.0 5.0 -1 ------- null}
+ -t 0.56192 -s 1 -d 2 -p tcp -e 1040 -c 2 -i 3 -a 2 -x {1.0 5.0 2 ------- null}
- -t 0.57024 -s 1 -d 2 -p tcp -e 1040 -c 2 -i 3 -a 2 -x {1.0 5.0 2 ------- null}
h -t 0.57024 -s 1 -d 2 -p tcp -e 1040 -c 2 -i 3 -a 2 -x {1.0 5.0 -1 ------- null}
r -t 0.58024 -s 1 -d 2 -p tcp -e 1040 -c 2 -i 2 -a 2 -x {1.0 5.0 1 ------- null}
+ -t 0.58024 -s 2 -d 3 -p tcp -e 1040 -c 2 -i 2 -a 2 -x {1.0 5.0 1 ------- null}
- -t 0.58024 -s 2 -d 3 -p tcp -e 1040 -c 2 -i 2 -a 2 -x {1.0 5.0 1 ------- null}
h -t 0.58024 -s 2 -d 3 -p tcp -e 1040 -c 2 -i 2 -a 2 -x {1.0 5.0 -1 ------- null}
r -t 0.58856 -s 1 -d 2 -p tcp -e 1040 -c 2 -i 3 -a 2 -x {1.0 5.0 2 ------- null}
+ -t 0.58856 -s 2 -d 3 -p tcp -e 1040 -c 2 -i 3 -a 2 -x {1.0 5.0 2 ------- null}
- -t 0.58856 -s 2 -d 3 -p tcp -e 1040 -c 2 -i 3 -a 2 -x {1.0 5.0 2 ------- null}
h -t 0.58856 -s 2 -d 3 -p tcp -e 1040 -c 2 -i 3 -a 2 -x {1.0 5.0 -1 ------- null}
r -t 0.59856 -s 2 -d 3 -p tcp -e 1040 -c 2 -i 2 -a 2 -x {1.0 5.0 1 ------- null}
+ -t 0.59856 -s 3 -d 5 -p tcp -e 1040 -c 2 -i 2 -a 2 -x {1.0 5.0 1 ------- null}
- -t 0.59856 -s 3 -d 5 -p tcp -e 1040 -c 2 -i 2 -a 2 -x {1.0 5.0 1 ------- null}
h -t 0.59856 -s 3 -d 5 -p tcp -e 1040 -c 2 -i 2 -a 2 -x {1.0 5.0 -1 ------- null}
r -t 0.60688 -s 2 -d 3 -p tcp -e 1040 -c 2 -i 3 -a 2 -x {1.0 5.0 2 ------- null}
+ -t 0.60688 -s 3 -d 5 -p tcp -e 1040 -c 2 -i 3 -a 2 -x {1.0 5.0 2 ------- null}
- -t 0.60688 -s 3 -d 5 -p tcp -e 1040 -c 2 -i 3 -a 2 -x {1.0 5.0 2 ------- null}
h -t 0.60688 -s 3 -d 5 -p tcp -e 1040 -c 2 -i 3 -a 2 -x {1.0 5.0 -1 ------- null}
r -t 0.61688 -s 3 -d 5 -p tcp -e 1040 -c 2 -i 2 -a 2 -x {1.0 5.0 1 ------- null}
+ -t 0.61688 -s 5 -d 3 -p ack -e 40 -c 2 -i 4 -a 2 -x {5.0 1.0 1 ------- null}
- -t 0.61688 -s 5 -d 3 -p ack -e 40 -c 2 -i 4 -a 2 -x {5.0 1.0 1 ------- null}
h -t 0.61688 -s 5 -d 3 -p ack -e 40 -c 2 -i 4 -a 2 -x {5.0 1.0 -1 ------- null}
r -t 0.6252 -s 3 -d 5 -p tcp -e 1040 -c 2 -i 3 -a 2 -x {1.0 5.0 2 ------- null}
+ -t 0.6252 -s 5 -d 3 -p ack -e 40 -c 2 -i 5 -a 2 -x {5.0 1.0 2 ------- null}
- -t 0.6252 -s 5 -d 3 -p ack -e 40 -c 2 -i 5 -a 2 -x {5.0 1.0 2 ------- null}
h -t 0.6252 -s 5 -d 3 -p ack -e 40 -c 2 -i 5 -a 2 -x {5.0 1.0 -1 ------- null}
r -t 0.6272 -s 5 -d 3 -p ack -e 40 -c 2 -i 4 -a 2 -x {5.0 1.0 1 ------- null}
+ -t 0.6272 -s 3 -d 2 -p ack -e 40 -c 2 -i 4 -a 2 -x {5.0 1.0 1 ------- null}
- -t 0.6272 -s 3 -d 2 -p ack -e 40 -c 2 -i 4 -a 2 -x {5.0 1.0 1 ------- null}
h -t 0.6272 -s 3 -d 2 -p ack -e 40 -c 2 -i 4 -a 2 -x {5.0 1.0 -1 ------- null}
r -t 0.63552 -s 5 -d 3 -p ack -e 40 -c 2 -i 5 -a 2 -x {5.0 1.0 2 ------- null}
+ -t 0.63552 -s 3 -d 2 -p ack -e 40 -c 2 -i 5 -a 2 -x {5.0 1.0 2 ------- null}
- -t 0.63552 -s 3 -d 2 -p ack -e 40 -c 2 -i 5 -a 2 -x {5.0 1.0 2 ------- null}
h -t 0.63552 -s 3 -d 2 -p ack -e 40 -c 2 -i 5 -a 2 -x {5.0 1.0 -1 ------- null}
r -t 0.63752 -s 3 -d 2 -p ack -e 40 -c 2 -i 4 -a 2 -x {5.0 1.0 1 ------- null}
+ -t 0.63752 -s 2 -d 1 -p ack -e 40 -c 2 -i 4 -a 2 -x {5.0 1.0 1 ------- null}
- -t 0.63752 -s 2 -d 1 -p ack -e 40 -c 2 -i 4 -a 2 -x {5.0 1.0 1 ------- null}
h -t 0.63752 -s 2 -d 1 -p ack -e 40 -c 2 -i 4 -a 2 -x {5.0 1.0 -1 ------- null}
r -t 0.64584 -s 3 -d 2 -p ack -e 40 -c 2 -i 5 -a 2 -x {5.0 1.0 2 ------- null}
+ -t 0.64584 -s 2 -d 1 -p ack -e 40 -c 2 -i 5 -a 2 -x {5.0 1.0 2 ------- null}
- -t 0.64584 -s 2 -d 1 -p ack -e 40 -c 2 -i 5 -a 2 -x {5.0 1.0 2 ------- null}
h -t 0.64584 -s 2 -d 1 -p ack -e 40 -c 2 -i 5 -a 2 -x {5.0 1.0 -1 ------- null}
r -t 0.64784 -s 2 -d 1 -p ack -e 40 -c 2 -i 4 -a 2 -x {5.0 1.0 1 ------- null}
+ -t 0.64784 -s 1 -d 2 -p tcp -e 1040 -c 2 -i 6 -a 2 -x {1.0 5.0 3 ------- null}
- -t 0.64784 -s 1 -d 2 -p tcp -e 1040 -c 2 -i 6 -a 2 -x {1.0 5.0 3 ------- null}
h -t 0.64784 -s 1 -d 2 -p tcp -e 1040 -c 2 -i 6 -a 2 -x {1.0 5.0 -1 ------- null}
+ -t 0.64784 -s 1 -d 2 -p tcp -e 1040 -c 2 -i 7 -a 2 -x {1.0 5.0 4 ------- null}
r -t 0.65616 -s 2 -d 1 -p ack -e 40 -c 2 -i 5 -a 2 -x {5.0 1.0 2 ------- null}
+ -t 0.65616 -s 1 -d 2 -p tcp -e 1040 -c 2 -i 8 -a 2 -x {1.0 5.0 5 ------- null}
+ -t 0.65616 -s 1 -d 2 -p tcp -e 1040 -c 2 -i 9 -a 2 -x {1.0 5.0 6 ------- null}
- -t 0.65616 -s 1 -d 2 -p tcp -e 1040 -c 2 -i 7 -a 2 -x {1.0 5.0 4 ------- null}
h -t 0.65616 -s 1 -d 2 -p tcp -e 1040 -c 2 -i 7 -a 2 -x {1.0 5.0 -1 ------- null}
- -t 0.66448 -s 1 -d 2 -p tcp -e 1040 -c 2 -i 8 -a 2 -x {1.0 5.0 5 ------- null}
h -t 0.66448 -s 1 -d 2 -p tcp -e 1040 -c 2 -i 8 -a 2 -x {1.0 5.0 -1 ------- null}
r -t 0.66616 -s 1 -d 2 -p tcp -e 1040 -c 2 -i 6 -a 2 -x {1.0 5.0 3 ------- null}
+ -t 0.66616 -s 2 -d 3 -p tcp -e 1040 -c 2 -i 6 -a 2 -x {1.0 5.0 3 ------- null}
- -t 0.66616 -s 2 -d 3 -p tcp -e 1040 -c 2 -i 6 -a 2 -x {1.0 5.0 3 ------- null}
h -t 0.66616 -s 2 -d 3 -p tcp -e 1040 -c 2 -i 6 -a 2 -x {1.0 5.0 -1 ------- null}
- -t 0.6728 -s 1 -d 2 -p tcp -e 1040 -c 2 -i 9 -a 2 -x {1.0 5.0 6 ------- null}
h -t 0.6728 -s 1 -d 2 -p tcp -e 1040 -c 2 -i 9 -a 2 -x {1.0 5.0 -1 ------- null}
r -t 0.67448 -s 1 -d 2 -p tcp -e 1040 -c 2 -i 7 -a 2 -x {1.0 5.0 4 ------- null}
+ -t 0.67448 -s 2 -d 3 -p tcp -e 1040 -c 2 -i 7 -a 2 -x {1.0 5.0 4 ------- null}
- -t 0.67448 -s 2 -d 3 -p tcp -e 1040 -c 2 -i 7 -a 2 -x {1.0 5.0 4 ------- null}
h -t 0.67448 -s 2 -d 3 -p tcp -e 1040 -c 2 -i 7 -a 2 -x {1.0 5.0 -1 ------- null}
r -t 0.6828 -s 1 -d 2 -p tcp -e 1040 -c 2 -i 8 -a 2 -x {1.0 5.0 5 ------- null}
+ -t 0.6828 -s 2 -d 3 -p tcp -e 1040 -c 2 -i 8 -a 2 -x {1.0 5.0 5 ------- null}
- -t 0.6828 -s 2 -d 3 -p tcp -e 1040 -c 2 -i 8 -a 2 -x {1.0 5.0 5 ------- null}
h -t 0.6828 -s 2 -d 3 -p tcp -e 1040 -c 2 -i 8 -a 2 -x {1.0 5.0 -1 ------- null}
r -t 0.68448 -s 2 -d 3 -p tcp -e 1040 -c 2 -i 6 -a 2 -x {1.0 5.0 3 ------- null}
+ -t 0.68448 -s 3 -d 5 -p tcp -e 1040 -c 2 -i 6 -a 2 -x {1.0 5.0 3 ------- null}
- -t 0.68448 -s 3 -d 5 -p tcp -e 1040 -c 2 -i 6 -a 2 -x {1.0 5.0 3 ------- null}
h -t 0.68448 -s 3 -d 5 -p tcp -e 1040 -c 2 -i 6 -a 2 -x {1.0 5.0 -1 ------- null}
r -t 0.69112 -s 1 -d 2 -p tcp -e 1040 -c 2 -i 9 -a 2 -x {1.0 5.0 6 ------- null}
+ -t 0.69112 -s 2 -d 3 -p tcp -e 1040 -c 2 -i 9 -a 2 -x {1.0 5.0 6 ------- null}
- -t 0.69112 -s 2 -d 3 -p tcp -e 1040 -c 2 -i 9 -a 2 -x {1.0 5.0 6 ------- null}
h -t 0.69112 -s 2 -d 3 -p tcp -e 1040 -c 2 -i 9 -a 2 -x {1.0 5.0 -1 ------- null}
r -t 0.6928 -s 2 -d 3 -p tcp -e 1040 -c 2 -i 7 -a 2 -x {1.0 5.0 4 ------- null}
+ -t 0.6928 -s 3 -d 5 -p tcp -e 1040 -c 2 -i 7 -a 2 -x {1.0 5.0 4 ------- null}
- -t 0.6928 -s 3 -d 5 -p tcp -e 1040 -c 2 -i 7 -a 2 -x {1.0 5.0 4 ------- null}
h -t 0.6928 -s 3 -d 5 -p tcp -e 1040 -c 2 -i 7 -a 2 -x {1.0 5.0 -1 ------- null}
r -t 0.70112 -s 2 -d 3 -p tcp -e 1040 -c 2 -i 8 -a 2 -x {1.0 5.0 5 ------- null}
+ -t 0.70112 -s 3 -d 5 -p tcp -e 1040 -c 2 -i 8 -a 2 -x {1.0 5.0 5 ------- null}
- -t 0.70112 -s 3 -d 5 -p tcp -e 1040 -c 2 -i 8 -a 2 -x {1.0 5.0 5 ------- null}
h -t 0.70112 -s 3 -d 5 -p tcp -e 1040 -c 2 -i 8 -a 2 -x {1.0 5.0 -1 ------- null}
r -t 0.7028 -s 3 -d 5 -p tcp -e 1040 -c 2 -i 6 -a 2 -x {1.0 5.0 3 ------- null}
+ -t 0.7028 -s 5 -d 3 -p ack -e 40 -c 2 -i 10 -a 2 -x {5.0 1.0 3 ------- null}
- -t 0.7028 -s 5 -d 3 -p ack -e 40 -c 2 -i 10 -a 2 -x {5.0 1.0 3 ------- null}
h -t 0.7028 -s 5 -d 3 -p ack -e 40 -c 2 -i 10 -a 2 -x {5.0 1.0 -1 ------- null}
r -t 0.70944 -s 2 -d 3 -p tcp -e 1040 -c 2 -i 9 -a 2 -x {1.0 5.0 6 ------- null}
+ -t 0.70944 -s 3 -d 5 -p tcp -e 1040 -c 2 -i 9 -a 2 -x {1.0 5.0 6 ------- null}
- -t 0.70944 -s 3 -d 5 -p tcp -e 1040 -c 2 -i 9 -a 2 -x {1.0 5.0 6 ------- null}
h -t 0.70944 -s 3 -d 5 -p tcp -e 1040 -c 2 -i 9 -a 2 -x {1.0 5.0 -1 ------- null}
r -t 0.71112 -s 3 -d 5 -p tcp -e 1040 -c 2 -i 7 -a 2 -x {1.0 5.0 4 ------- null}
+ -t 0.71112 -s 5 -d 3 -p ack -e 40 -c 2 -i 11 -a 2 -x {5.0 1.0 4 ------- null}
- -t 0.71112 -s 5 -d 3 -p ack -e 40 -c 2 -i 11 -a 2 -x {5.0 1.0 4 ------- null}
h -t 0.71112 -s 5 -d 3 -p ack -e 40 -c 2 -i 11 -a 2 -x {5.0 1.0 -1 ------- null}
r -t 0.71312 -s 5 -d 3 -p ack -e 40 -c 2 -i 10 -a 2 -x {5.0 1.0 3 ------- null}
+ -t 0.71312 -s 3 -d 2 -p ack -e 40 -c 2 -i 10 -a 2 -x {5.0 1.0 3 ------- null}
- -t 0.71312 -s 3 -d 2 -p ack -e 40 -c 2 -i 10 -a 2 -x {5.0 1.0 3 ------- null}
h -t 0.71312 -s 3 -d 2 -p ack -e 40 -c 2 -i 10 -a 2 -x {5.0 1.0 -1 ------- null}
r -t 0.71944 -s 3 -d 5 -p tcp -e 1040 -c 2 -i 8 -a 2 -x {1.0 5.0 5 ------- null}
+ -t 0.71944 -s 5 -d 3 -p ack -e 40 -c 2 -i 12 -a 2 -x {5.0 1.0 5 ------- null}
- -t 0.71944 -s 5 -d 3 -p ack -e 40 -c 2 -i 12 -a 2 -x {5.0 1.0 5 ------- null}
h -t 0.71944 -s 5 -d 3 -p ack -e 40 -c 2 -i 12 -a 2 -x {5.0 1.0 -1 ------- null}
r -t 0.72144 -s 5 -d 3 -p ack -e 40 -c 2 -i 11 -a 2 -x {5.0 1.0 4 ------- null}
+ -t 0.72144 -s 3 -d 2 -p ack -e 40 -c 2 -i 11 -a 2 -x {5.0 1.0 4 ------- null}
- -t 0.72144 -s 3 -d 2 -p ack -e 40 -c 2 -i 11 -a 2 -x {5.0 1.0 4 ------- null}
h -t 0.72144 -s 3 -d 2 -p ack -e 40 -c 2 -i 11 -a 2 -x {5.0 1.0 -1 ------- null}
r -t 0.72344 -s 3 -d 2 -p ack -e 40 -c 2 -i 10 -a 2 -x {5.0 1.0 3 ------- null}
+ -t 0.72344 -s 2 -d 1 -p ack -e 40 -c 2 -i 10 -a 2 -x {5.0 1.0 3 ------- null}
- -t 0.72344 -s 2 -d 1 -p ack -e 40 -c 2 -i 10 -a 2 -x {5.0 1.0 3 ------- null}
h -t 0.72344 -s 2 -d 1 -p ack -e 40 -c 2 -i 10 -a 2 -x {5.0 1.0 -1 ------- null}
r -t 0.72776 -s 3 -d 5 -p tcp -e 1040 -c 2 -i 9 -a 2 -x {1.0 5.0 6 ------- null}
+ -t 0.72776 -s 5 -d 3 -p ack -e 40 -c 2 -i 13 -a 2 -x {5.0 1.0 6 ------- null}
- -t 0.72776 -s 5 -d 3 -p ack -e 40 -c 2 -i 13 -a 2 -x {5.0 1.0 6 ------- null}
h -t 0.72776 -s 5 -d 3 -p ack -e 40 -c 2 -i 13 -a 2 -x {5.0 1.0 -1 ------- null}
r -t 0.72976 -s 5 -d 3 -p ack -e 40 -c 2 -i 12 -a 2 -x {5.0 1.0 5 ------- null}
+ -t 0.72976 -s 3 -d 2 -p ack -e 40 -c 2 -i 12 -a 2 -x {5.0 1.0 5 ------- null}
- -t 0.72976 -s 3 -d 2 -p ack -e 40 -c 2 -i 12 -a 2 -x {5.0 1.0 5 ------- null}
h -t 0.72976 -s 3 -d 2 -p ack -e 40 -c 2 -i 12 -a 2 -x {5.0 1.0 -1 ------- null}
r -t 0.73176 -s 3 -d 2 -p ack -e 40 -c 2 -i 11 -a 2 -x {5.0 1.0 4 ------- null}
+ -t 0.73176 -s 2 -d 1 -p ack -e 40 -c 2 -i 11 -a 2 -x {5.0 1.0 4 ------- null}
- -t 0.73176 -s 2 -d 1 -p ack -e 40 -c 2 -i 11 -a 2 -x {5.0 1.0 4 ------- null}
h -t 0.73176 -s 2 -d 1 -p ack -e 40 -c 2 -i 11 -a 2 -x {5.0 1.0 -1 ------- null}
r -t 0.73376 -s 2 -d 1 -p ack -e 40 -c 2 -i 10 -a 2 -x {5.0 1.0 3 ------- null}
+ -t 0.73376 -s 1 -d 2 -p tcp -e 1040 -c 2 -i 14 -a 2 -x {1.0 5.0 7 ------- null}
- -t 0.73376 -s 1 -d 2 -p tcp -e 1040 -c 2 -i 14 -a 2 -x {1.0 5.0 7 ------- null}
h -t 0.73376 -s 1 -d 2 -p tcp -e 1040 -c 2 -i 14 -a 2 -x {1.0 5.0 -1 ------- null}
+ -t 0.73376 -s 1 -d 2 -p tcp -e 1040 -c 2 -i 15 -a 2 -x {1.0 5.0 8 ------- null}
r -t 0.73808 -s 5 -d 3 -p ack -e 40 -c 2 -i 13 -a 2 -x {5.0 1.0 6 ------- null}
+ -t 0.73808 -s 3 -d 2 -p ack -e 40 -c 2 -i 13 -a 2 -x {5.0 1.0 6 ------- null}
- -t 0.73808 -s 3 -d 2 -p ack -e 40 -c 2 -i 13 -a 2 -x {5.0 1.0 6 ------- null}
h -t 0.73808 -s 3 -d 2 -p ack -e 40 -c 2 -i 13 -a 2 -x {5.0 1.0 -1 ------- null}
r -t 0.74008 -s 3 -d 2 -p ack -e 40 -c 2 -i 12 -a 2 -x {5.0 1.0 5 ------- null}
+ -t 0.74008 -s 2 -d 1 -p ack -e 40 -c 2 -i 12 -a 2 -x {5.0 1.0 5 ------- null}
- -t 0.74008 -s 2 -d 1 -p ack -e 40 -c 2 -i 12 -a 2 -x {5.0 1.0 5 ------- null}
h -t 0.74008 -s 2 -d 1 -p ack -e 40 -c 2 -i 12 -a 2 -x {5.0 1.0 -1 ------- null}
r -t 0.74208 -s 2 -d 1 -p ack -e 40 -c 2 -i 11 -a 2 -x {5.0 1.0 4 ------- null}
+ -t 0.74208 -s 1 -d 2 -p tcp -e 1040 -c 2 -i 16 -a 2 -x {1.0 5.0 9 ------- null}
+ -t 0.74208 -s 1 -d 2 -p tcp -e 1040 -c 2 -i 17 -a 2 -x {1.0 5.0 10 ------- null}
- -t 0.74208 -s 1 -d 2 -p tcp -e 1040 -c 2 -i 15 -a 2 -x {1.0 5.0 8 ------- null}
h -t 0.74208 -s 1 -d 2 -p tcp -e 1040 -c 2 -i 15 -a 2 -x {1.0 5.0 -1 ------- null}
r -t 0.7484 -s 3 -d 2 -p ack -e 40 -c 2 -i 13 -a 2 -x {5.0 1.0 6 ------- null}
+ -t 0.7484 -s 2 -d 1 -p ack -e 40 -c 2 -i 13 -a 2 -x {5.0 1.0 6 ------- null}
- -t 0.7484 -s 2 -d 1 -p ack -e 40 -c 2 -i 13 -a 2 -x {5.0 1.0 6 ------- null}
h -t 0.7484 -s 2 -d 1 -p ack -e 40 -c 2 -i 13 -a 2 -x {5.0 1.0 -1 ------- null}
r -t 0.7504 -s 2 -d 1 -p ack -e 40 -c 2 -i 12 -a 2 -x {5.0 1.0 5 ------- null}
+ -t 0.7504 -s 1 -d 2 -p tcp -e 1040 -c 2 -i 18 -a 2 -x {1.0 5.0 11 ------- null}
+ -t 0.7504 -s 1 -d 2 -p tcp -e 1040 -c 2 -i 19 -a 2 -x {1.0 5.0 12 ------- null}
- -t 0.7504 -s 1 -d 2 -p tcp -e 1040 -c 2 -i 16 -a 2 -x {1.0 5.0 9 ------- null}
h -t 0.7504 -s 1 -d 2 -p tcp -e 1040 -c 2 -i 16 -a 2 -x {1.0 5.0 -1 ------- null}
r -t 0.75208 -s 1 -d 2 -p tcp -e 1040 -c 2 -i 14 -a 2 -x {1.0 5.0 7 ------- null}
+ -t 0.75208 -s 2 -d 3 -p tcp -e 1040 -c 2 -i 14 -a 2 -x {1.0 5.0 7 ------- null}
- -t 0.75208 -s 2 -d 3 -p tcp -e 1040 -c 2 -i 14 -a 2 -x {1.0 5.0 7 ------- null}
h -t 0.75208 -s 2 -d 3 -p tcp -e 1040 -c 2 -i 14 -a 2 -x {1.0 5.0 -1 ------- null}
r -t 0.75872 -s 2 -d 1 -p ack -e 40 -c 2 -i 13 -a 2 -x {5.0 1.0 6 ------- null}
+ -t 0.75872 -s 1 -d 2 -p tcp -e 1040 -c 2 -i 20 -a 2 -x {1.0 5.0 13 ------- null}
+ -t 0.75872 -s 1 -d 2 -p tcp -e 1040 -c 2 -i 21 -a 2 -x {1.0 5.0 14 ------- null}
- -t 0.75872 -s 1 -d 2 -p tcp -e 1040 -c 2 -i 17 -a 2 -x {1.0 5.0 10 ------- null}
h -t 0.75872 -s 1 -d 2 -p tcp -e 1040 -c 2 -i 17 -a 2 -x {1.0 5.0 -1 ------- null}
r -t 0.7604 -s 1 -d 2 -p tcp -e 1040 -c 2 -i 15 -a 2 -x {1.0 5.0 8 ------- null}
+ -t 0.7604 -s 2 -d 3 -p tcp -e 1040 -c 2 -i 15 -a 2 -x {1.0 5.0 8 ------- null}
- -t 0.7604 -s 2 -d 3 -p tcp -e 1040 -c 2 -i 15 -a 2 -x {1.0 5.0 8 ------- null}
h -t 0.7604 -s 2 -d 3 -p tcp -e 1040 -c 2 -i 15 -a 2 -x {1.0 5.0 -1 ------- null}
- -t 0.76704 -s 1 -d 2 -p tcp -e 1040 -c 2 -i 18 -a 2 -x {1.0 5.0 11 ------- null}
h -t 0.76704 -s 1 -d 2 -p tcp -e 1040 -c 2 -i 18 -a 2 -x {1.0 5.0 -1 ------- null}
r -t 0.76872 -s 1 -d 2 -p tcp -e 1040 -c 2 -i 16 -a 2 -x {1.0 5.0 9 ------- null}
+ -t 0.76872 -s 2 -d 3 -p tcp -e 1040 -c 2 -i 16 -a 2 -x {1.0 5.0 9 ------- null}
- -t 0.76872 -s 2 -d 3 -p tcp -e 1040 -c 2 -i 16 -a 2 -x {1.0 5.0 9 ------- null}
h -t 0.76872 -s 2 -d 3 -p tcp -e 1040 -c 2 -i 16 -a 2 -x {1.0 5.0 -1 ------- null}
r -t 0.7704 -s 2 -d 3 -p tcp -e 1040 -c 2 -i 14 -a 2 -x {1.0 5.0 7 ------- null}
+ -t 0.7704 -s 3 -d 5 -p tcp -e 1040 -c 2 -i 14 -a 2 -x {1.0 5.0 7 ------- null}
- -t 0.7704 -s 3 -d 5 -p tcp -e 1040 -c 2 -i 14 -a 2 -x {1.0 5.0 7 ------- null}
h -t 0.7704 -s 3 -d 5 -p tcp -e 1040 -c 2 -i 14 -a 2 -x {1.0 5.0 -1 ------- null}
- -t 0.77536 -s 1 -d 2 -p tcp -e 1040 -c 2 -i 19 -a 2 -x {1.0 5.0 12 ------- null}
h -t 0.77536 -s 1 -d 2 -p tcp -e 1040 -c 2 -i 19 -a 2 -x {1.0 5.0 -1 ------- null}
r -t 0.77704 -s 1 -d 2 -p tcp -e 1040 -c 2 -i 17 -a 2 -x {1.0 5.0 10 ------- null}
+ -t 0.77704 -s 2 -d 3 -p tcp -e 1040 -c 2 -i 17 -a 2 -x {1.0 5.0 10 ------- null}
- -t 0.77704 -s 2 -d 3 -p tcp -e 1040 -c 2 -i 17 -a 2 -x {1.0 5.0 10 ------- null}
h -t 0.77704 -s 2 -d 3 -p tcp -e 1040 -c 2 -i 17 -a 2 -x {1.0 5.0 -1 ------- null}
r -t 0.77872 -s 2 -d 3 -p tcp -e 1040 -c 2 -i 15 -a 2 -x {1.0 5.0 8 ------- null}
+ -t 0.77872 -s 3 -d 5 -p tcp -e 1040 -c 2 -i 15 -a 2 -x {1.0 5.0 8 ------- null}
- -t 0.77872 -s 3 -d 5 -p tcp -e 1040 -c 2 -i 15 -a 2 -x {1.0 5.0 8 ------- null}
h -t 0.77872 -s 3 -d 5 -p tcp -e 1040 -c 2 -i 15 -a 2 -x {1.0 5.0 -1 ------- null}
- -t 0.78368 -s 1 -d 2 -p tcp -e 1040 -c 2 -i 20 -a 2 -x {1.0 5.0 13 ------- null}
h -t 0.78368 -s 1 -d 2 -p tcp -e 1040 -c 2 -i 20 -a 2 -x {1.0 5.0 -1 ------- null}
r -t 0.78536 -s 1 -d 2 -p tcp -e 1040 -c 2 -i 18 -a 2 -x {1.0 5.0 11 ------- null}
+ -t 0.78536 -s 2 -d 3 -p tcp -e 1040 -c 2 -i 18 -a 2 -x {1.0 5.0 11 ------- null}
- -t 0.78536 -s 2 -d 3 -p tcp -e 1040 -c 2 -i 18 -a 2 -x {1.0 5.0 11 ------- null}
h -t 0.78536 -s 2 -d 3 -p tcp -e 1040 -c 2 -i 18 -a 2 -x {1.0 5.0 -1 ------- null}
r -t 0.78704 -s 2 -d 3 -p tcp -e 1040 -c 2 -i 16 -a 2 -x {1.0 5.0 9 ------- null}
+ -t 0.78704 -s 3 -d 5 -p tcp -e 1040 -c 2 -i 16 -a 2 -x {1.0 5.0 9 ------- null}
- -t 0.78704 -s 3 -d 5 -p tcp -e 1040 -c 2 -i 16 -a 2 -x {1.0 5.0 9 ------- null}
h -t 0.78704 -s 3 -d 5 -p tcp -e 1040 -c 2 -i 16 -a 2 -x {1.0 5.0 -1 ------- null}
r -t 0.78872 -s 3 -d 5 -p tcp -e 1040 -c 2 -i 14 -a 2 -x {1.0 5.0 7 ------- null}
+ -t 0.78872 -s 5 -d 3 -p ack -e 40 -c 2 -i 22 -a 2 -x {5.0 1.0 7 ------- null}
- -t 0.78872 -s 5 -d 3 -p ack -e 40 -c 2 -i 22 -a 2 -x {5.0 1.0 7 ------- null}
h -t 0.78872 -s 5 -d 3 -p ack -e 40 -c 2 -i 22 -a 2 -x {5.0 1.0 -1 ------- null}
- -t 0.792 -s 1 -d 2 -p tcp -e 1040 -c 2 -i 21 -a 2 -x {1.0 5.0 14 ------- null}
h -t 0.792 -s 1 -d 2 -p tcp -e 1040 -c 2 -i 21 -a 2 -x {1.0 5.0 -1 ------- null}
r -t 0.79368 -s 1 -d 2 -p tcp -e 1040 -c 2 -i 19 -a 2 -x {1.0 5.0 12 ------- null}
+ -t 0.79368 -s 2 -d 3 -p tcp -e 1040 -c 2 -i 19 -a 2 -x {1.0 5.0 12 ------- null}
- -t 0.79368 -s 2 -d 3 -p tcp -e 1040 -c 2 -i 19 -a 2 -x {1.0 5.0 12 ------- null}
h -t 0.79368 -s 2 -d 3 -p tcp -e 1040 -c 2 -i 19 -a 2 -x {1.0 5.0 -1 ------- null}
r -t 0.79536 -s 2 -d 3 -p tcp -e 1040 -c 2 -i 17 -a 2 -x {1.0 5.0 10 ------- null}
+ -t 0.79536 -s 3 -d 5 -p tcp -e 1040 -c 2 -i 17 -a 2 -x {1.0 5.0 10 ------- null}
- -t 0.79536 -s 3 -d 5 -p tcp -e 1040 -c 2 -i 17 -a 2 -x {1.0 5.0 10 ------- null}
h -t 0.79536 -s 3 -d 5 -p tcp -e 1040 -c 2 -i 17 -a 2 -x {1.0 5.0 -1 ------- null}
r -t 0.79704 -s 3 -d 5 -p tcp -e 1040 -c 2 -i 15 -a 2 -x {1.0 5.0 8 ------- null}
+ -t 0.79704 -s 5 -d 3 -p ack -e 40 -c 2 -i 23 -a 2 -x {5.0 1.0 8 ------- null}
- -t 0.79704 -s 5 -d 3 -p ack -e 40 -c 2 -i 23 -a 2 -x {5.0 1.0 8 ------- null}
h -t 0.79704 -s 5 -d 3 -p ack -e 40 -c 2 -i 23 -a 2 -x {5.0 1.0 -1 ------- null}
r -t 0.79904 -s 5 -d 3 -p ack -e 40 -c 2 -i 22 -a 2 -x {5.0 1.0 7 ------- null}
+ -t 0.79904 -s 3 -d 2 -p ack -e 40 -c 2 -i 22 -a 2 -x {5.0 1.0 7 ------- null}
- -t 0.79904 -s 3 -d 2 -p ack -e 40 -c 2 -i 22 -a 2 -x {5.0 1.0 7 ------- null}
h -t 0.79904 -s 3 -d 2 -p ack -e 40 -c 2 -i 22 -a 2 -x {5.0 1.0 -1 ------- null}
r -t 0.802 -s 1 -d 2 -p tcp -e 1040 -c 2 -i 20 -a 2 -x {1.0 5.0 13 ------- null}
+ -t 0.802 -s 2 -d 3 -p tcp -e 1040 -c 2 -i 20 -a 2 -x {1.0 5.0 13 ------- null}
- -t 0.802 -s 2 -d 3 -p tcp -e 1040 -c 2 -i 20 -a 2 -x {1.0 5.0 13 ------- null}
h -t 0.802 -s 2 -d 3 -p tcp -e 1040 -c 2 -i 20 -a 2 -x {1.0 5.0 -1 ------- null}
r -t 0.80368 -s 2 -d 3 -p tcp -e 1040 -c 2 -i 18 -a 2 -x {1.0 5.0 11 ------- null}
+ -t 0.80368 -s 3 -d 5 -p tcp -e 1040 -c 2 -i 18 -a 2 -x {1.0 5.0 11 ------- null}
- -t 0.80368 -s 3 -d 5 -p tcp -e 1040 -c 2 -i 18 -a 2 -x {1.0 5.0 11 ------- null}
h -t 0.80368 -s 3 -d 5 -p tcp -e 1040 -c 2 -i 18 -a 2 -x {1.0 5.0 -1 ------- null}
r -t 0.80536 -s 3 -d 5 -p tcp -e 1040 -c 2 -i 16 -a 2 -x {1.0 5.0 9 ------- null}
+ -t 0.80536 -s 5 -d 3 -p ack -e 40 -c 2 -i 24 -a 2 -x {5.0 1.0 9 ------- null}
- -t 0.80536 -s 5 -d 3 -p ack -e 40 -c 2 -i 24 -a 2 -x {5.0 1.0 9 ------- null}
h -t 0.80536 -s 5 -d 3 -p ack -e 40 -c 2 -i 24 -a 2 -x {5.0 1.0 -1 ------- null}
r -t 0.80736 -s 5 -d 3 -p ack -e 40 -c 2 -i 23 -a 2 -x {5.0 1.0 8 ------- null}
+ -t 0.80736 -s 3 -d 2 -p ack -e 40 -c 2 -i 23 -a 2 -x {5.0 1.0 8 ------- null}
- -t 0.80736 -s 3 -d 2 -p ack -e 40 -c 2 -i 23 -a 2 -x {5.0 1.0 8 ------- null}
h -t 0.80736 -s 3 -d 2 -p ack -e 40 -c 2 -i 23 -a 2 -x {5.0 1.0 -1 ------- null}
r -t 0.80936 -s 3 -d 2 -p ack -e 40 -c 2 -i 22 -a 2 -x {5.0 1.0 7 ------- null}
+ -t 0.80936 -s 2 -d 1 -p ack -e 40 -c 2 -i 22 -a 2 -x {5.0 1.0 7 ------- null}
- -t 0.80936 -s 2 -d 1 -p ack -e 40 -c 2 -i 22 -a 2 -x {5.0 1.0 7 ------- null}
h -t 0.80936 -s 2 -d 1 -p ack -e 40 -c 2 -i 22 -a 2 -x {5.0 1.0 -1 ------- null}
r -t 0.81032 -s 1 -d 2 -p tcp -e 1040 -c 2 -i 21 -a 2 -x {1.0 5.0 14 ------- null}
+ -t 0.81032 -s 2 -d 3 -p tcp -e 1040 -c 2 -i 21 -a 2 -x {1.0 5.0 14 ------- null}
- -t 0.81032 -s 2 -d 3 -p tcp -e 1040 -c 2 -i 21 -a 2 -x {1.0 5.0 14 ------- null}
h -t 0.81032 -s 2 -d 3 -p tcp -e 1040 -c 2 -i 21 -a 2 -x {1.0 5.0 -1 ------- null}
r -t 0.812 -s 2 -d 3 -p tcp -e 1040 -c 2 -i 19 -a 2 -x {1.0 5.0 12 ------- null}
+ -t 0.812 -s 3 -d 5 -p tcp -e 1040 -c 2 -i 19 -a 2 -x {1.0 5.0 12 ------- null}
- -t 0.812 -s 3 -d 5 -p tcp -e 1040 -c 2 -i 19 -a 2 -x {1.0 5.0 12 ------- null}
h -t 0.812 -s 3 -d 5 -p tcp -e 1040 -c 2 -i 19 -a 2 -x {1.0 5.0 -1 ------- null}
r -t 0.81368 -s 3 -d 5 -p tcp -e 1040 -c 2 -i 17 -a 2 -x {1.0 5.0 10 ------- null}
+ -t 0.81368 -s 5 -d 3 -p ack -e 40 -c 2 -i 25 -a 2 -x {5.0 1.0 10 ------- null}
- -t 0.81368 -s 5 -d 3 -p ack -e 40 -c 2 -i 25 -a 2 -x {5.0 1.0 10 ------- null}
h -t 0.81368 -s 5 -d 3 -p ack -e 40 -c 2 -i 25 -a 2 -x {5.0 1.0 -1 ------- null}
r -t 0.81568 -s 5 -d 3 -p ack -e 40 -c 2 -i 24 -a 2 -x {5.0 1.0 9 ------- null}
+ -t 0.81568 -s 3 -d 2 -p ack -e 40 -c 2 -i 24 -a 2 -x {5.0 1.0 9 ------- null}
- -t 0.81568 -s 3 -d 2 -p ack -e 40 -c 2 -i 24 -a 2 -x {5.0 1.0 9 ------- null}
h -t 0.81568 -s 3 -d 2 -p ack -e 40 -c 2 -i 24 -a 2 -x {5.0 1.0 -1 ------- null}
r -t 0.81768 -s 3 -d 2 -p ack -e 40 -c 2 -i 23 -a 2 -x {5.0 1.0 8 ------- null}
+ -t 0.81768 -s 2 -d 1 -p ack -e 40 -c 2 -i 23 -a 2 -x {5.0 1.0 8 ------- null}
- -t 0.81768 -s 2 -d 1 -p ack -e 40 -c 2 -i 23 -a 2 -x {5.0 1.0 8 ------- null}
h -t 0.81768 -s 2 -d 1 -p ack -e 40 -c 2 -i 23 -a 2 -x {5.0 1.0 -1 ------- null}
r -t 0.81968 -s 2 -d 1 -p ack -e 40 -c 2 -i 22 -a 2 -x {5.0 1.0 7 ------- null}
+ -t 0.81968 -s 1 -d 2 -p tcp -e 1040 -c 2 -i 26 -a 2 -x {1.0 5.0 15 ------- null}
- -t 0.81968 -s 1 -d 2 -p tcp -e 1040 -c 2 -i 26 -a 2 -x {1.0 5.0 15 ------- null}
h -t 0.81968 -s 1 -d 2 -p tcp -e 1040 -c 2 -i 26 -a 2 -x {1.0 5.0 -1 ------- null}
+ -t 0.81968 -s 1 -d 2 -p tcp -e 1040 -c 2 -i 27 -a 2 -x {1.0 5.0 16 ------- null}
r -t 0.82032 -s 2 -d 3 -p tcp -e 1040 -c 2 -i 20 -a 2 -x {1.0 5.0 13 ------- null}
+ -t 0.82032 -s 3 -d 5 -p tcp -e 1040 -c 2 -i 20 -a 2 -x {1.0 5.0 13 ------- null}
- -t 0.82032 -s 3 -d 5 -p tcp -e 1040 -c 2 -i 20 -a 2 -x {1.0 5.0 13 ------- null}
h -t 0.82032 -s 3 -d 5 -p tcp -e 1040 -c 2 -i 20 -a 2 -x {1.0 5.0 -1 ------- null}
r -t 0.822 -s 3 -d 5 -p tcp -e 1040 -c 2 -i 18 -a 2 -x {1.0 5.0 11 ------- null}
+ -t 0.822 -s 5 -d 3 -p ack -e 40 -c 2 -i 28 -a 2 -x {5.0 1.0 11 ------- null}
- -t 0.822 -s 5 -d 3 -p ack -e 40 -c 2 -i 28 -a 2 -x {5.0 1.0 11 ------- null}
h -t 0.822 -s 5 -d 3 -p ack -e 40 -c 2 -i 28 -a 2 -x {5.0 1.0 -1 ------- null}
r -t 0.824 -s 5 -d 3 -p ack -e 40 -c 2 -i 25 -a 2 -x {5.0 1.0 10 ------- null}
+ -t 0.824 -s 3 -d 2 -p ack -e 40 -c 2 -i 25 -a 2 -x {5.0 1.0 10 ------- null}
- -t 0.824 -s 3 -d 2 -p ack -e 40 -c 2 -i 25 -a 2 -x {5.0 1.0 10 ------- null}
h -t 0.824 -s 3 -d 2 -p ack -e 40 -c 2 -i 25 -a 2 -x {5.0 1.0 -1 ------- null}
r -t 0.826 -s 3 -d 2 -p ack -e 40 -c 2 -i 24 -a 2 -x {5.0 1.0 9 ------- null}
+ -t 0.826 -s 2 -d 1 -p ack -e 40 -c 2 -i 24 -a 2 -x {5.0 1.0 9 ------- null}
- -t 0.826 -s 2 -d 1 -p ack -e 40 -c 2 -i 24 -a 2 -x {5.0 1.0 9 ------- null}
h -t 0.826 -s 2 -d 1 -p ack -e 40 -c 2 -i 24 -a 2 -x {5.0 1.0 -1 ------- null}
r -t 0.828 -s 2 -d 1 -p ack -e 40 -c 2 -i 23 -a 2 -x {5.0 1.0 8 ------- null}
+ -t 0.828 -s 1 -d 2 -p tcp -e 1040 -c 2 -i 29 -a 2 -x {1.0 5.0 17 ------- null}
+ -t 0.828 -s 1 -d 2 -p tcp -e 1040 -c 2 -i 30 -a 2 -x {1.0 5.0 18 ------- null}
- -t 0.828 -s 1 -d 2 -p tcp -e 1040 -c 2 -i 27 -a 2 -x {1.0 5.0 16 ------- null}
h -t 0.828 -s 1 -d 2 -p tcp -e 1040 -c 2 -i 27 -a 2 -x {1.0 5.0 -1 ------- null}
r -t 0.82864 -s 2 -d 3 -p tcp -e 1040 -c 2 -i 21 -a 2 -x {1.0 5.0 14 ------- null}
+ -t 0.82864 -s 3 -d 5 -p tcp -e 1040 -c 2 -i 21 -a 2 -x {1.0 5.0 14 ------- null}
- -t 0.82864 -s 3 -d 5 -p tcp -e 1040 -c 2 -i 21 -a 2 -x {1.0 5.0 14 ------- null}
h -t 0.82864 -s 3 -d 5 -p tcp -e 1040 -c 2 -i 21 -a 2 -x {1.0 5.0 -1 ------- null}
r -t 0.83032 -s 3 -d 5 -p tcp -e 1040 -c 2 -i 19 -a 2 -x {1.0 5.0 12 ------- null}
+ -t 0.83032 -s 5 -d 3 -p ack -e 40 -c 2 -i 31 -a 2 -x {5.0 1.0 12 ------- null}
- -t 0.83032 -s 5 -d 3 -p ack -e 40 -c 2 -i 31 -a 2 -x {5.0 1.0 12 ------- null}
h -t 0.83032 -s 5 -d 3 -p ack -e 40 -c 2 -i 31 -a 2 -x {5.0 1.0 -1 ------- null}
r -t 0.83232 -s 5 -d 3 -p ack -e 40 -c 2 -i 28 -a 2 -x {5.0 1.0 11 ------- null}
+ -t 0.83232 -s 3 -d 2 -p ack -e 40 -c 2 -i 28 -a 2 -x {5.0 1.0 11 ------- null}
- -t 0.83232 -s 3 -d 2 -p ack -e 40 -c 2 -i 28 -a 2 -x {5.0 1.0 11 ------- null}
h -t 0.83232 -s 3 -d 2 -p ack -e 40 -c 2 -i 28 -a 2 -x {5.0 1.0 -1 ------- null}
r -t 0.83432 -s 3 -d 2 -p ack -e 40 -c 2 -i 25 -a 2 -x {5.0 1.0 10 ------- null}
+ -t 0.83432 -s 2 -d 1 -p ack -e 40 -c 2 -i 25 -a 2 -x {5.0 1.0 10 ------- null}
- -t 0.83432 -s 2 -d 1 -p ack -e 40 -c 2 -i 25 -a 2 -x {5.0 1.0 10 ------- null}
h -t 0.83432 -s 2 -d 1 -p ack -e 40 -c 2 -i 25 -a 2 -x {5.0 1.0 -1 ------- null}
r -t 0.83632 -s 2 -d 1 -p ack -e 40 -c 2 -i 24 -a 2 -x {5.0 1.0 9 ------- null}
+ -t 0.83632 -s 1 -d 2 -p tcp -e 1040 -c 2 -i 32 -a 2 -x {1.0 5.0 19 ------- null}
+ -t 0.83632 -s 1 -d 2 -p tcp -e 1040 -c 2 -i 33 -a 2 -x {1.0 5.0 20 ------- null}
- -t 0.83632 -s 1 -d 2 -p tcp -e 1040 -c 2 -i 29 -a 2 -x {1.0 5.0 17 ------- null}
h -t 0.83632 -s 1 -d 2 -p tcp -e 1040 -c 2 -i 29 -a 2 -x {1.0 5.0 -1 ------- null}
r -t 0.838 -s 1 -d 2 -p tcp -e 1040 -c 2 -i 26 -a 2 -x {1.0 5.0 15 ------- null}
+ -t 0.838 -s 2 -d 3 -p tcp -e 1040 -c 2 -i 26 -a 2 -x {1.0 5.0 15 ------- null}
- -t 0.838 -s 2 -d 3 -p tcp -e 1040 -c 2 -i 26 -a 2 -x {1.0 5.0 15 ------- null}
h -t 0.838 -s 2 -d 3 -p tcp -e 1040 -c 2 -i 26 -a 2 -x {1.0 5.0 -1 ------- null}
r -t 0.83864 -s 3 -d 5 -p tcp -e 1040 -c 2 -i 20 -a 2 -x {1.0 5.0 13 ------- null}
+ -t 0.83864 -s 5 -d 3 -p ack -e 40 -c 2 -i 34 -a 2 -x {5.0 1.0 13 ------- null}
- -t 0.83864 -s 5 -d 3 -p ack -e 40 -c 2 -i 34 -a 2 -x {5.0 1.0 13 ------- null}
h -t 0.83864 -s 5 -d 3 -p ack -e 40 -c 2 -i 34 -a 2 -x {5.0 1.0 -1 ------- null}
r -t 0.84064 -s 5 -d 3 -p ack -e 40 -c 2 -i 31 -a 2 -x {5.0 1.0 12 ------- null}
+ -t 0.84064 -s 3 -d 2 -p ack -e 40 -c 2 -i 31 -a 2 -x {5.0 1.0 12 ------- null}
- -t 0.84064 -s 3 -d 2 -p ack -e 40 -c 2 -i 31 -a 2 -x {5.0 1.0 12 ------- null}
h -t 0.84064 -s 3 -d 2 -p ack -e 40 -c 2 -i 31 -a 2 -x {5.0 1.0 -1 ------- null}
r -t 0.84264 -s 3 -d 2 -p ack -e 40 -c 2 -i 28 -a 2 -x {5.0 1.0 11 ------- null}
+ -t 0.84264 -s 2 -d 1 -p ack -e 40 -c 2 -i 28 -a 2 -x {5.0 1.0 11 ------- null}
- -t 0.84264 -s 2 -d 1 -p ack -e 40 -c 2 -i 28 -a 2 -x {5.0 1.0 11 ------- null}
h -t 0.84264 -s 2 -d 1 -p ack -e 40 -c 2 -i 28 -a 2 -x {5.0 1.0 -1 ------- null}
r -t 0.84464 -s 2 -d 1 -p ack -e 40 -c 2 -i 25 -a 2 -x {5.0 1.0 10 ------- null}
+ -t 0.84464 -s 1 -d 2 -p tcp -e 1040 -c 2 -i 35 -a 2 -x {1.0 5.0 21 ------- null}
+ -t 0.84464 -s 1 -d 2 -p tcp -e 1040 -c 2 -i 36 -a 2 -x {1.0 5.0 22 ------- null}
- -t 0.84464 -s 1 -d 2 -p tcp -e 1040 -c 2 -i 30 -a 2 -x {1.0 5.0 18 ------- null}
h -t 0.84464 -s 1 -d 2 -p tcp -e 1040 -c 2 -i 30 -a 2 -x {1.0 5.0 -1 ------- null}
r -t 0.84632 -s 1 -d 2 -p tcp -e 1040 -c 2 -i 27 -a 2 -x {1.0 5.0 16 ------- null}
+ -t 0.84632 -s 2 -d 3 -p tcp -e 1040 -c 2 -i 27 -a 2 -x {1.0 5.0 16 ------- null}
- -t 0.84632 -s 2 -d 3 -p tcp -e 1040 -c 2 -i 27 -a 2 -x {1.0 5.0 16 ------- null}
h -t 0.84632 -s 2 -d 3 -p tcp -e 1040 -c 2 -i 27 -a 2 -x {1.0 5.0 -1 ------- null}
r -t 0.84696 -s 3 -d 5 -p tcp -e 1040 -c 2 -i 21 -a 2 -x {1.0 5.0 14 ------- null}
+ -t 0.84696 -s 5 -d 3 -p ack -e 40 -c 2 -i 37 -a 2 -x {5.0 1.0 14 ------- null}
- -t 0.84696 -s 5 -d 3 -p ack -e 40 -c 2 -i 37 -a 2 -x {5.0 1.0 14 ------- null}
h -t 0.84696 -s 5 -d 3 -p ack -e 40 -c 2 -i 37 -a 2 -x {5.0 1.0 -1 ------- null}
r -t 0.84896 -s 5 -d 3 -p ack -e 40 -c 2 -i 34 -a 2 -x {5.0 1.0 13 ------- null}