+ 0.5 0 1 cbr 210 ------- 1 0.0 1.0 0 0
- 0.5 0 1 cbr 210 ------- 1 0.0 1.0 0 0
+ 0.50375 0 1 cbr 210 ------- 1 0.0 1.0 1 1
- 0.50375 0 1 cbr 210 ------- 1 0.0 1.0 1 1
+ 0.5075 0 1 cbr 210 ------- 1 0.0 1.0 2 2
- 0.5075 0 1 cbr 210 ------- 1 0.0 1.0 2 2
+ 0.51125 0 1 cbr 210 ------- 1 0.0 1.0 3 3
- 0.51125 0 1 cbr 210 ------- 1 0.0 1.0 3 3
r 0.51168 0 1 cbr 210 ------- 1 0.0 1.0 0 0
+ 0.515 0 1 cbr 210 ------- 1 0.0 1.0 4 4
- 0.515 0 1 cbr 210 ------- 1 0.0 1.0 4 4
r 0.51543 0 1 cbr 210 ------- 1 0.0 1.0 1 1
+ 0.51875 0 1 cbr 210 ------- 1 0.0 1.0 5 5
- 0.51875 0 1 cbr 210 ------- 1 0.0 1.0 5 5
r 0.51918 0 1 cbr 210 ------- 1 0.0 1.0 2 2
+ 0.5225 0 1 cbr 210 ------- 1 0.0 1.0 6 6
- 0.5225 0 1 cbr 210 ------- 1 0.0 1.0 6 6
r 0.52293 0 1 cbr 210 ------- 1 0.0 1.0 3 3
+ 0.52625 0 1 cbr 210 ------- 1 0.0 1.0 7 7
- 0.52625 0 1 cbr 210 ------- 1 0.0 1.0 7 7
r 0.52668 0 1 cbr 210 ------- 1 0.0 1.0 4 4
+ 0.53 0 1 cbr 210 ------- 1 0.0 1.0 8 8
- 0.53 0 1 cbr 210 ------- 1 0.0 1.0 8 8
r 0.53043 0 1 cbr 210 ------- 1 0.0 1.0 5 5
+ 0.53375 0 1 cbr 210 ------- 1 0.0 1.0 9 9
- 0.53375 0 1 cbr 210 ------- 1 0.0 1.0 9 9
r 0.53418 0 1 cbr 210 ------- 1 0.0 1.0 6 6
+ 0.5375 0 1 cbr 210 ------- 1 0.0 1.0 10 10
- 0.5375 0 1 cbr 210 ------- 1 0.0 1.0 10 10
r 0.53793 0 1 cbr 210 ------- 1 0.0 1.0 7 7
+ 0.54125 0 1 cbr 210 ------- 1 0.0 1.0 11 11
- 0.54125 0 1 cbr 210 ------- 1 0.0 1.0 11 11
r 0.54168 0 1 cbr 210 ------- 1 0.0 1.0 8 8
+ 0.545 0 1 cbr 210 ------- 1 0.0 1.0 12 12
- 0.545 0 1 cbr 210 ------- 1 0.0 1.0 12 12
r 0.54543 0 1 cbr 210 ------- 1 0.0 1.0 9 9
+ 0.54875 0 1 cbr 210 ------- 1 0.0 1.0 13 13
- 0.54875 0 1 cbr 210 ------- 1 0.0 1.0 13 13
r 0.54918 0 1 cbr 210 ------- 1 0.0 1.0 10 10
+ 0.5525 0 1 cbr 210 ------- 1 0.0 1.0 14 14
- 0.5525 0 1 cbr 210 ------- 1 0.0 1.0 14 14
r 0.55293 0 1 cbr 210 ------- 1 0.0 1.0 11 11
+ 0.55625 0 1 cbr 210 ------- 1 0.0 1.0 15 15
- 0.55625 0 1 cbr 210 ------- 1 0.0 1.0 15 15
r 0.55668 0 1 cbr 210 ------- 1 0.0 1.0 12 12
+ 0.56 0 1 cbr 210 ------- 1 0.0 1.0 16 16
- 0.56 0 1 cbr 210 ------- 1 0.0 1.0 16 16
r 0.56043 0 1 cbr 210 ------- 1 0.0 1.0 13 13
+ 0.56375 0 1 cbr 210 ------- 1 0.0 1.0 17 17
- 0.56375 0 1 cbr 210 ------- 1 0.0 1.0 17 17
r 0.56418 0 1 cbr 210 ------- 1 0.0 1.0 14 14
+ 0.5675 0 1 cbr 210 ------- 1 0.0 1.0 18 18
- 0.5675 0 1 cbr 210 ------- 1 0.0 1.0 18 18
r 0.56793 0 1 cbr 210 ------- 1 0.0 1.0 15 15
+ 0.57125 0 1 cbr 210 ------- 1 0.0 1.0 19 19
- 0.57125 0 1 cbr 210 ------- 1 0.0 1.0 19 19
r 0.57168 0 1 cbr 210 ------- 1 0.0 1.0 16 16
+ 0.575 0 1 cbr 210 ------- 1 0.0 1.0 20 20
- 0.575 0 1 cbr 210 ------- 1 0.0 1.0 20 20
r 0.57543 0 1 cbr 210 ------- 1 0.0 1.0 17 17
+ 0.57875 0 1 cbr 210 ------- 1 0.0 1.0 21 21
- 0.57875 0 1 cbr 210 ------- 1 0.0 1.0 21 21
r 0.57918 0 1 cbr 210 ------- 1 0.0 1.0 18 18
+ 0.5825 0 1 cbr 210 ------- 1 0.0 1.0 22 22
- 0.5825 0 1 cbr 210 ------- 1 0.0 1.0 22 22
r 0.58293 0 1 cbr 210 ------- 1 0.0 1.0 19 19
+ 0.58625 0 1 cbr 210 ------- 1 0.0 1.0 23 23
- 0.58625 0 1 cbr 210 ------- 1 0.0 1.0 23 23
r 0.58668 0 1 cbr 210 ------- 1 0.0 1.0 20 20
+ 0.59 0 1 cbr 210 ------- 1 0.0 1.0 24 24
- 0.59 0 1 cbr 210 ------- 1 0.0 1.0 24 24
r 0.59043 0 1 cbr 210 ------- 1 0.0 1.0 21 21
+ 0.59375 0 1 cbr 210 ------- 1 0.0 1.0 25 25
- 0.59375 0 1 cbr 210 ------- 1 0.0 1.0 25 25
r 0.59418 0 1 cbr 210 ------- 1 0.0 1.0 22 22
+ 0.5975 0 1 cbr 210 ------- 1 0.0 1.0 26 26
- 0.5975 0 1 cbr 210 ------- 1 0.0 1.0 26 26
r 0.59793 0 1 cbr 210 ------- 1 0.0 1.0 23 23
+ 0.60125 0 1 cbr 210 ------- 1 0.0 1.0 27 27
- 0.60125 0 1 cbr 210 ------- 1 0.0 1.0 27 27
r 0.60168 0 1 cbr 210 ------- 1 0.0 1.0 24 24
+ 0.605 0 1 cbr 210 ------- 1 0.0 1.0 28 28
- 0.605 0 1 cbr 210 ------- 1 0.0 1.0 28 28
r 0.60543 0 1 cbr 210 ------- 1 0.0 1.0 25 25
+ 0.60875 0 1 cbr 210 ------- 1 0.0 1.0 29 29
- 0.60875 0 1 cbr 210 ------- 1 0.0 1.0 29 29
r 0.60918 0 1 cbr 210 ------- 1 0.0 1.0 26 26
+ 0.6125 0 1 cbr 210 ------- 1 0.0 1.0 30 30
- 0.6125 0 1 cbr 210 ------- 1 0.0 1.0 30 30
r 0.61293 0 1 cbr 210 ------- 1 0.0 1.0 27 27
+ 0.61625 0 1 cbr 210 ------- 1 0.0 1.0 31 31
- 0.61625 0 1 cbr 210 ------- 1 0.0 1.0 31 31
r 0.61668 0 1 cbr 210 ------- 1 0.0 1.0 28 28
+ 0.62 0 1 cbr 210 ------- 1 0.0 1.0 32 32
- 0.62 0 1 cbr 210 ------- 1 0.0 1.0 32 32
r 0.62043 0 1 cbr 210 ------- 1 0.0 1.0 29 29
+ 0.62375 0 1 cbr 210 ------- 1 0.0 1.0 33 33
- 0.62375 0 1 cbr 210 ------- 1 0.0 1.0 33 33
r 0.62418 0 1 cbr 210 ------- 1 0.0 1.0 30 30
+ 0.6275 0 1 cbr 210 ------- 1 0.0 1.0 34 34
- 0.6275 0 1 cbr 210 ------- 1 0.0 1.0 34 34
r 0.62793 0 1 cbr 210 ------- 1 0.0 1.0 31 31
+ 0.63125 0 1 cbr 210 ------- 1 0.0 1.0 35 35
- 0.63125 0 1 cbr 210 ------- 1 0.0 1.0 35 35
r 0.63168 0 1 cbr 210 ------- 1 0.0 1.0 32 32
+ 0.635 0 1 cbr 210 ------- 1 0.0 1.0 36 36
- 0.635 0 1 cbr 210 ------- 1 0.0 1.0 36 36
r 0.63543 0 1 cbr 210 ------- 1 0.0 1.0 33 33
+ 0.63875 0 1 cbr 210 ------- 1 0.0 1.0 37 37
- 0.63875 0 1 cbr 210 ------- 1 0.0 1.0 37 37
r 0.63918 0 1 cbr 210 ------- 1 0.0 1.0 34 34
+ 0.6425 0 1 cbr 210 ------- 1 0.0 1.0 38 38
- 0.6425 0 1 cbr 210 ------- 1 0.0 1.0 38 38
r 0.64293 0 1 cbr 210 ------- 1 0.0 1.0 35 35
+ 0.64625 0 1 cbr 210 ------- 1 0.0 1.0 39 39
- 0.64625 0 1 cbr 210 ------- 1 0.0 1.0 39 39
r 0.64668 0 1 cbr 210 ------- 1 0.0 1.0 36 36
+ 0.65 0 1 cbr 210 ------- 1 0.0 1.0 40 40
- 0.65 0 1 cbr 210 ------- 1 0.0 1.0 40 40
r 0.65043 0 1 cbr 210 ------- 1 0.0 1.0 37 37
+ 0.65375 0 1 cbr 210 ------- 1 0.0 1.0 41 41
- 0.65375 0 1 cbr 210 ------- 1 0.0 1.0 41 41
r 0.65418 0 1 cbr 210 ------- 1 0.0 1.0 38 38
+ 0.6575 0 1 cbr 210 ------- 1 0.0 1.0 42 42
- 0.6575 0 1 cbr 210 ------- 1 0.0 1.0 42 42
r 0.65793 0 1 cbr 210 ------- 1 0.0 1.0 39 39
+ 0.66125 0 1 cbr 210 ------- 1 0.0 1.0 43 43
- 0.66125 0 1 cbr 210 ------- 1 0.0 1.0 43 43
r 0.66168 0 1 cbr 210 ------- 1 0.0 1.0 40 40
+ 0.665 0 1 cbr 210 ------- 1 0.0 1.0 44 44
- 0.665 0 1 cbr 210 ------- 1 0.0 1.0 44 44
r 0.66543 0 1 cbr 210 ------- 1 0.0 1.0 41 41
+ 0.66875 0 1 cbr 210 ------- 1 0.0 1.0 45 45
- 0.66875 0 1 cbr 210 ------- 1 0.0 1.0 45 45
r 0.66918 0 1 cbr 210 ------- 1 0.0 1.0 42 42
+ 0.6725 0 1 cbr 210 ------- 1 0.0 1.0 46 46
- 0.6725 0 1 cbr 210 ------- 1 0.0 1.0 46 46
r 0.67293 0 1 cbr 210 ------- 1 0.0 1.0 43 43
+ 0.67625 0 1 cbr 210 ------- 1 0.0 1.0 47 47
- 0.67625 0 1 cbr 210 ------- 1 0.0 1.0 47 47
r 0.67668 0 1 cbr 210 ------- 1 0.0 1.0 44 44
+ 0.68 0 1 cbr 210 ------- 1 0.0 1.0 48 48
- 0.68 0 1 cbr 210 ------- 1 0.0 1.0 48 48
r 0.68043 0 1 cbr 210 ------- 1 0.0 1.0 45 45
+ 0.68375 0 1 cbr 210 ------- 1 0.0 1.0 49 49
- 0.68375 0 1 cbr 210 ------- 1 0.0 1.0 49 49
r 0.68418 0 1 cbr 210 ------- 1 0.0 1.0 46 46
+ 0.6875 0 1 cbr 210 ------- 1 0.0 1.0 50 50
- 0.6875 0 1 cbr 210 ------- 1 0.0 1.0 50 50
r 0.68793 0 1 cbr 210 ------- 1 0.0 1.0 47 47
+ 0.69125 0 1 cbr 210 ------- 1 0.0 1.0 51 51
- 0.69125 0 1 cbr 210 ------- 1 0.0 1.0 51 51
r 0.69168 0 1 cbr 210 ------- 1 0.0 1.0 48 48
+ 0.695 0 1 cbr 210 ------- 1 0.0 1.0 52 52
- 0.695 0 1 cbr 210 ------- 1 0.0 1.0 52 52
r 0.69543 0 1 cbr 210 ------- 1 0.0 1.0 49 49
+ 0.69875 0 1 cbr 210 ------- 1 0.0 1.0 53 53
- 0.69875 0 1 cbr 210 ------- 1 0.0 1.0 53 53
r 0.69918 0 1 cbr 210 ------- 1 0.0 1.0 50 50
+ 0.7025 0 1 cbr 210 ------- 1 0.0 1.0 54 54
- 0.7025 0 1 cbr 210 ------- 1 0.0 1.0 54 54
r 0.70293 0 1 cbr 210 ------- 1 0.0 1.0 51 51
+ 0.70625 0 1 cbr 210 ------- 1 0.0 1.0 55 55
- 0.70625 0 1 cbr 210 ------- 1 0.0 1.0 55 55
r 0.70668 0 1 cbr 210 ------- 1 0.0 1.0 52 52
+ 0.71 0 1 cbr 210 ------- 1 0.0 1.0 56 56
- 0.71 0 1 cbr 210 ------- 1 0.0 1.0 56 56
r 0.71043 0 1 cbr 210 ------- 1 0.0 1.0 53 53
+ 0.71375 0 1 cbr 210 ------- 1 0.0 1.0 57 57
- 0.71375 0 1 cbr 210 ------- 1 0.0 1.0 57 57
r 0.71418 0 1 cbr 210 ------- 1 0.0 1.0 54 54
+ 0.7175 0 1 cbr 210 ------- 1 0.0 1.0 58 58
- 0.7175 0 1 cbr 210 ------- 1 0.0 1.0 58 58
r 0.71793 0 1 cbr 210 ------- 1 0.0 1.0 55 55
+ 0.72125 0 1 cbr 210 ------- 1 0.0 1.0 59 59
- 0.72125 0 1 cbr 210 ------- 1 0.0 1.0 59 59
r 0.72168 0 1 cbr 210 ------- 1 0.0 1.0 56 56
+ 0.725 0 1 cbr 210 ------- 1 0.0 1.0 60 60
- 0.725 0 1 cbr 210 ------- 1 0.0 1.0 60 60
r 0.72543 0 1 cbr 210 ------- 1 0.0 1.0 57 57
+ 0.72875 0 1 cbr 210 ------- 1 0.0 1.0 61 61
- 0.72875 0 1 cbr 210 ------- 1 0.0 1.0 61 61
r 0.72918 0 1 cbr 210 ------- 1 0.0 1.0 58 58
+ 0.7325 0 1 cbr 210 ------- 1 0.0 1.0 62 62
- 0.7325 0 1 cbr 210 ------- 1 0.0 1.0 62 62
r 0.73293 0 1 cbr 210 ------- 1 0.0 1.0 59 59
+ 0.73625 0 1 cbr 210 ------- 1 0.0 1.0 63 63
- 0.73625 0 1 cbr 210 ------- 1 0.0 1.0 63 63
r 0.73668 0 1 cbr 210 ------- 1 0.0 1.0 60 60
+ 0.74 0 1 cbr 210 ------- 1 0.0 1.0 64 64
- 0.74 0 1 cbr 210 ------- 1 0.0 1.0 64 64
r 0.74043 0 1 cbr 210 ------- 1 0.0 1.0 61 61
+ 0.74375 0 1 cbr 210 ------- 1 0.0 1.0 65 65
- 0.74375 0 1 cbr 210 ------- 1 0.0 1.0 65 65
r 0.74418 0 1 cbr 210 ------- 1 0.0 1.0 62 62
+ 0.7475 0 1 cbr 210 ------- 1 0.0 1.0 66 66
- 0.7475 0 1 cbr 210 ------- 1 0.0 1.0 66 66
r 0.74793 0 1 cbr 210 ------- 1 0.0 1.0 63 63
+ 0.75125 0 1 cbr 210 ------- 1 0.0 1.0 67 67
- 0.75125 0 1 cbr 210 ------- 1 0.0 1.0 67 67
r 0.75168 0 1 cbr 210 ------- 1 0.0 1.0 64 64
+ 0.755 0 1 cbr 210 ------- 1 0.0 1.0 68 68
- 0.755 0 1 cbr 210 ------- 1 0.0 1.0 68 68
r 0.75543 0 1 cbr 210 ------- 1 0.0 1.0 65 65
+ 0.75875 0 1 cbr 210 ------- 1 0.0 1.0 69 69
- 0.75875 0 1 cbr 210 ------- 1 0.0 1.0 69 69
r 0.75918 0 1 cbr 210 ------- 1 0.0 1.0 66 66
+ 0.7625 0 1 cbr 210 ------- 1 0.0 1.0 70 70
- 0.7625 0 1 cbr 210 ------- 1 0.0 1.0 70 70
r 0.76293 0 1 cbr 210 ------- 1 0.0 1.0 67 67
+ 0.76625 0 1 cbr 210 ------- 1 0.0 1.0 71 71
- 0.76625 0 1 cbr 210 ------- 1 0.0 1.0 71 71
r 0.76668 0 1 cbr 210 ------- 1 0.0 1.0 68 68
+ 0.77 0 1 cbr 210 ------- 1 0.0 1.0 72 72
- 0.77 0 1 cbr 210 ------- 1 0.0 1.0 72 72
r 0.77043 0 1 cbr 210 ------- 1 0.0 1.0 69 69
+ 0.77375 0 1 cbr 210 ------- 1 0.0 1.0 73 73
- 0.77375 0 1 cbr 210 ------- 1 0.0 1.0 73 73
r 0.77418 0 1 cbr 210 ------- 1 0.0 1.0 70 70
+ 0.7775 0 1 cbr 210 ------- 1 0.0 1.0 74 74
- 0.7775 0 1 cbr 210 ------- 1 0.0 1.0 74 74
r 0.77793 0 1 cbr 210 ------- 1 0.0 1.0 71 71
+ 0.78125 0 1 cbr 210 ------- 1 0.0 1.0 75 75
- 0.78125 0 1 cbr 210 ------- 1 0.0 1.0 75 75
r 0.78168 0 1 cbr 210 ------- 1 0.0 1.0 72 72
+ 0.785 0 1 cbr 210 ------- 1 0.0 1.0 76 76
- 0.785 0 1 cbr 210 ------- 1 0.0 1.0 76 76
r 0.78543 0 1 cbr 210 ------- 1 0.0 1.0 73 73
+ 0.78875 0 1 cbr 210 ------- 1 0.0 1.0 77 77
- 0.78875 0 1 cbr 210 ------- 1 0.0 1.0 77 77
r 0.78918 0 1 cbr 210 ------- 1 0.0 1.0 74 74
+ 0.7925 0 1 cbr 210 ------- 1 0.0 1.0 78 78
- 0.7925 0 1 cbr 210 ------- 1 0.0 1.0 78 78
r 0.79293 0 1 cbr 210 ------- 1 0.0 1.0 75 75
+ 0.79625 0 1 cbr 210 ------- 1 0.0 1.0 79 79
- 0.79625 0 1 cbr 210 ------- 1 0.0 1.0 79 79
r 0.79668 0 1 cbr 210 ------- 1 0.0 1.0 76 76
+ 0.8 0 1 cbr 210 ------- 1 0.0 1.0 80 80
- 0.8 0 1 cbr 210 ------- 1 0.0 1.0 80 80
r 0.80043 0 1 cbr 210 ------- 1 0.0 1.0 77 77
+ 0.80375 0 1 cbr 210 ------- 1 0.0 1.0 81 81
- 0.80375 0 1 cbr 210 ------- 1 0.0 1.0 81 81
r 0.80418 0 1 cbr 210 ------- 1 0.0 1.0 78 78
+ 0.8075 0 1 cbr 210 ------- 1 0.0 1.0 82 82
- 0.8075 0 1 cbr 210 ------- 1 0.0 1.0 82 82
r 0.80793 0 1 cbr 210 ------- 1 0.0 1.0 79 79
+ 0.81125 0 1 cbr 210 ------- 1 0.0 1.0 83 83
- 0.81125 0 1 cbr 210 ------- 1 0.0 1.0 83 83
r 0.81168 0 1 cbr 210 ------- 1 0.0 1.0 80 80
+ 0.815 0 1 cbr 210 ------- 1 0.0 1.0 84 84
- 0.815 0 1 cbr 210 ------- 1 0.0 1.0 84 84
r 0.81543 0 1 cbr 210 ------- 1 0.0 1.0 81 81
+ 0.81875 0 1 cbr 210 ------- 1 0.0 1.0 85 85
- 0.81875 0 1 cbr 210 ------- 1 0.0 1.0 85 85
r 0.81918 0 1 cbr 210 ------- 1 0.0 1.0 82 82
+ 0.8225 0 1 cbr 210 ------- 1 0.0 1.0 86 86
- 0.8225 0 1 cbr 210 ------- 1 0.0 1.0 86 86
r 0.82293 0 1 cbr 210 ------- 1 0.0 1.0 83 83
+ 0.82625 0 1 cbr 210 ------- 1 0.0 1.0 87 87
- 0.82625 0 1 cbr 210 ------- 1 0.0 1.0 87 87
r 0.82668 0 1 cbr 210 ------- 1 0.0 1.0 84 84
+ 0.83 0 1 cbr 210 ------- 1 0.0 1.0 88 88
- 0.83 0 1 cbr 210 ------- 1 0.0 1.0 88 88
r 0.83043 0 1 cbr 210 ------- 1 0.0 1.0 85 85
+ 0.83375 0 1 cbr 210 ------- 1 0.0 1.0 89 89
- 0.83375 0 1 cbr 210 ------- 1 0.0 1.0 89 89
r 0.83418 0 1 cbr 210 ------- 1 0.0 1.0 86 86
+ 0.8375 0 1 cbr 210 ------- 1 0.0 1.0 90 90
- 0.8375 0 1 cbr 210 ------- 1 0.0 1.0 90 90
r 0.83793 0 1 cbr 210 ------- 1 0.0 1.0 87 87
+ 0.84125 0 1 cbr 210 ------- 1 0.0 1.0 91 91
- 0.84125 0 1 cbr 210 ------- 1 0.0 1.0 91 91
r 0.84168 0 1 cbr 210 ------- 1 0.0 1.0 88 88
+ 0.845 0 1 cbr 210 ------- 1 0.0 1.0 92 92
- 0.845 0 1 cbr 210 ------- 1 0.0 1.0 92 92
r 0.84543 0 1 cbr 210 ------- 1 0.0 1.0 89 89
+ 0.84875 0 1 cbr 210 ------- 1 0.0 1.0 93 93
- 0.84875 0 1 cbr 210 ------- 1 0.0 1.0 93 93
r 0.84918 0 1 cbr 210 ------- 1 0.0 1.0 90 90
+ 0.8525 0 1 cbr 210 ------- 1 0.0 1.0 94 94
- 0.8525 0 1 cbr 210 ------- 1 0.0 1.0 94 94
r 0.85293 0 1 cbr 210 ------- 1 0.0 1.0 91 91
+ 0.85625 0 1 cbr 210 ------- 1 0.0 1.0 95 95
- 0.85625 0 1 cbr 210 ------- 1 0.0 1.0 95 95
r 0.85668 0 1 cbr 210 ------- 1 0.0 1.0 92 92
+ 0.86 0 1 cbr 210 ------- 1 0.0 1.0 96 96
- 0.86 0 1 cbr 210 ------- 1 0.0 1.0 96 96
r 0.86043 0 1 cbr 210 ------- 1 0.0 1.0 93 93
+ 0.86375 0 1 cbr 210 ------- 1 0.0 1.0 97 97
- 0.86375 0 1 cbr 210 ------- 1 0.0 1.0 97 97
r 0.86418 0 1 cbr 210 ------- 1 0.0 1.0 94 94
+ 0.8675 0 1 cbr 210 ------- 1 0.0 1.0 98 98
- 0.8675 0 1 cbr 210 ------- 1 0.0 1.0 98 98
r 0.86793 0 1 cbr 210 ------- 1 0.0 1.0 95 95
+ 0.87125 0 1 cbr 210 ------- 1 0.0 1.0 99 99
- 0.87125 0 1 cbr 210 ------- 1 0.0 1.0 99 99
r 0.87168 0 1 cbr 210 ------- 1 0.0 1.0 96 96
+ 0.875 0 1 cbr 210 ------- 1 0.0 1.0 100 100
- 0.875 0 1 cbr 210 ------- 1 0.0 1.0 100 100
r 0.87543 0 1 cbr 210 ------- 1 0.0 1.0 97 97
+ 0.87875 0 1 cbr 210 ------- 1 0.0 1.0 101 101
- 0.87875 0 1 cbr 210 ------- 1 0.0 1.0 101 101
r 0.87918 0 1 cbr 210 ------- 1 0.0 1.0 98 98
+ 0.8825 0 1 cbr 210 ------- 1 0.0 1.0 102 102
- 0.8825 0 1 cbr 210 ------- 1 0.0 1.0 102 102
r 0.88293 0 1 cbr 210 ------- 1 0.0 1.0 99 99
+ 0.88625 0 1 cbr 210 ------- 1 0.0 1.0 103 103
- 0.88625 0 1 cbr 210 ------- 1 0.0 1.0 103 103
r 0.88668 0 1 cbr 210 ------- 1 0.0 1.0 100 100
+ 0.89 0 1 cbr 210 ------- 1 0.0 1.0 104 104
- 0.89 0 1 cbr 210 ------- 1 0.0 1.0 104 104
r 0.89043 0 1 cbr 210 ------- 1 0.0 1.0 101 101
+ 0.89375 0 1 cbr 210 ------- 1 0.0 1.0 105 105
- 0.89375 0 1 cbr 210 ------- 1 0.0 1.0 105 105
r 0.89418 0 1 cbr 210 ------- 1 0.0 1.0 102 102
+ 0.8975 0 1 cbr 210 ------- 1 0.0 1.0 106 106
- 0.8975 0 1 cbr 210 ------- 1 0.0 1.0 106 106
r 0.89793 0 1 cbr 210 ------- 1 0.0 1.0 103 103
+ 0.90125 0 1 cbr 210 ------- 1 0.0 1.0 107 107
- 0.90125 0 1 cbr 210 ------- 1 0.0 1.0 107 107
r 0.90168 0 1 cbr 210 ------- 1 0.0 1.0 104 104
+ 0.905 0 1 cbr 210 ------- 1 0.0 1.0 108 108
- 0.905 0 1 cbr 210 ------- 1 0.0 1.0 108 108
r 0.90543 0 1 cbr 210 ------- 1 0.0 1.0 105 105
+ 0.90875 0 1 cbr 210 ------- 1 0.0 1.0 109 109
- 0.90875 0 1 cbr 210 ------- 1 0.0 1.0 109 109
r 0.90918 0 1 cbr 210 ------- 1 0.0 1.0 106 106
+ 0.9125 0 1 cbr 210 ------- 1 0.0 1.0 110 110
- 0.9125 0 1 cbr 210 ------- 1 0.0 1.0 110 110
r 0.91293 0 1 cbr 210 ------- 1 0.0 1.0 107 107
+ 0.91625 0 1 cbr 210 ------- 1 0.0 1.0 111 111
- 0.91625 0 1 cbr 210 ------- 1 0.0 1.0 111 111
r 0.91668 0 1 cbr 210 ------- 1 0.0 1.0 108 108
+ 0.92 0 1 cbr 210 ------- 1 0.0 1.0 112 112
- 0.92 0 1 cbr 210 ------- 1 0.0 1.0 112 112
r 0.92043 0 1 cbr 210 ------- 1 0.0 1.0 109 109
+ 0.92375 0 1 cbr 210 ------- 1 0.0 1.0 113 113
- 0.92375 0 1 cbr 210 ------- 1 0.0 1.0 113 113
r 0.92418 0 1 cbr 210 ------- 1 0.0 1.0 110 110
+ 0.9275 0 1 cbr 210 ------- 1 0.0 1.0 114 114
- 0.9275 0 1 cbr 210 ------- 1 0.0 1.0 114 114
r 0.92793 0 1 cbr 210 ------- 1 0.0 1.0 111 111
+ 0.93125 0 1 cbr 210 ------- 1 0.0 1.0 115 115
- 0.93125 0 1 cbr 210 ------- 1 0.0 1.0 115 115
r 0.93168 0 1 cbr 210 ------- 1 0.0 1.0 112 112
+ 0.935 0 1 cbr 210 ------- 1 0.0 1.0 116 116
- 0.935 0 1 cbr 210 ------- 1 0.0 1.0 116 116
r 0.93543 0 1 cbr 210 ------- 1 0.0 1.0 113 113
+ 0.93875 0 1 cbr 210 ------- 1 0.0 1.0 117 117
- 0.93875 0 1 cbr 210 ------- 1 0.0 1.0 117 117
r 0.93918 0 1 cbr 210 ------- 1 0.0 1.0 114 114
+ 0.9425 0 1 cbr 210 ------- 1 0.0 1.0 118 118
- 0.9425 0 1 cbr 210 ------- 1 0.0 1.0 118 118
r 0.94293 0 1 cbr 210 ------- 1 0.0 1.0 115 115
+ 0.94625 0 1 cbr 210 ------- 1 0.0 1.0 119 119
- 0.94625 0 1 cbr 210 ------- 1 0.0 1.0 119 119
r 0.94668 0 1 cbr 210 ------- 1 0.0 1.0 116 116
+ 0.95 0 1 cbr 210 ------- 1 0.0 1.0 120 120
- 0.95 0 1 cbr 210 ------- 1 0.0 1.0 120 120
r 0.95043 0 1 cbr 210 ------- 1 0.0 1.0 117 117
+ 0.95375 0 1 cbr 210 ------- 1 0.0 1.0 121 121
- 0.95375 0 1 cbr 210 ------- 1 0.0 1.0 121 121
r 0.95418 0 1 cbr 210 ------- 1 0.0 1.0 118 118
+ 0.9575 0 1 cbr 210 ------- 1 0.0 1.0 122 122
- 0.9575 0 1 cbr 210 ------- 1 0.0 1.0 122 122
r 0.95793 0 1 cbr 210 ------- 1 0.0 1.0 119 119
+ 0.96125 0 1 cbr 210 ------- 1 0.0 1.0 123 123
- 0.96125 0 1 cbr 210 ------- 1 0.0 1.0 123 123
r 0.96168 0 1 cbr 210 ------- 1 0.0 1.0 120 120
+ 0.965 0 1 cbr 210 ------- 1 0.0 1.0 124 124
- 0.965 0 1 cbr 210 ------- 1 0.0 1.0 124 124
r 0.96543 0 1 cbr 210 ------- 1 0.0 1.0 121 121
+ 0.96875 0 1 cbr 210 ------- 1 0.0 1.0 125 125
- 0.96875 0 1 cbr 210 ------- 1 0.0 1.0 125 125
r 0.96918 0 1 cbr 210 ------- 1 0.0 1.0 122 122
+ 0.9725 0 1 cbr 210 ------- 1 0.0 1.0 126 126
- 0.9725 0 1 cbr 210 ------- 1 0.0 1.0 126 126
r 0.97293 0 1 cbr 210 ------- 1 0.0 1.0 123 123
+ 0.97625 0 1 cbr 210 ------- 1 0.0 1.0 127 127
- 0.97625 0 1 cbr 210 ------- 1 0.0 1.0 127 127
r 0.97668 0 1 cbr 210 ------- 1 0.0 1.0 124 124
+ 0.98 0 1 cbr 210 ------- 1 0.0 1.0 128 128
- 0.98 0 1 cbr 210 ------- 1 0.0 1.0 128 128
r 0.98043 0 1 cbr 210 ------- 1 0.0 1.0 125 125
+ 0.98375 0 1 cbr 210 ------- 1 0.0 1.0 129 129
- 0.98375 0 1 cbr 210 ------- 1 0.0 1.0 129 129
r 0.98418 0 1 cbr 210 ------- 1 0.0 1.0 126 126
+ 0.9875 0 1 cbr 210 ------- 1 0.0 1.0 130 130
- 0.9875 0 1 cbr 210 ------- 1 0.0 1.0 130 130
r 0.98793 0 1 cbr 210 ------- 1 0.0 1.0 127 127
+ 0.99125 0 1 cbr 210 ------- 1 0.0 1.0 131 131
- 0.99125 0 1 cbr 210 ------- 1 0.0 1.0 131 131
r 0.99168 0 1 cbr 210 ------- 1 0.0 1.0 128 128
+ 0.995 0 1 cbr 210 ------- 1 0.0 1.0 132 132
- 0.995 0 1 cbr 210 ------- 1 0.0 1.0 132 132
r 0.99543 0 1 cbr 210 ------- 1 0.0 1.0 129 129
+ 0.99875 0 1 cbr 210 ------- 1 0.0 1.0 133 133
- 0.99875 0 1 cbr 210 ------- 1 0.0 1.0 133 133
r 0.99918 0 1 cbr 210 ------- 1 0.0 1.0 130 130
+ 1.0025 0 1 cbr 210 ------- 1 0.0 1.0 134 134
- 1.0025 0 1 cbr 210 ------- 1 0.0 1.0 134 134
r 1.00293 0 1 cbr 210 ------- 1 0.0 1.0 131 131
+ 1.00625 0 1 cbr 210 ------- 1 0.0 1.0 135 135
- 1.00625 0 1 cbr 210 ------- 1 0.0 1.0 135 135
r 1.00668 0 1 cbr 210 ------- 1 0.0 1.0 132 132
+ 1.01 0 1 cbr 210 ------- 1 0.0 1.0 136 136
- 1.01 0 1 cbr 210 ------- 1 0.0 1.0 136 136
r 1.01043 0 1 cbr 210 ------- 1 0.0 1.0 133 133
+ 1.01375 0 1 cbr 210 ------- 1 0.0 1.0 137 137
- 1.01375 0 1 cbr 210 ------- 1 0.0 1.0 137 137
r 1.01418 0 1 cbr 210 ------- 1 0.0 1.0 134 134
+ 1.0175 0 1 cbr 210 ------- 1 0.0 1.0 138 138
- 1.0175 0 1 cbr 210 ------- 1 0.0 1.0 138 138
r 1.01793 0 1 cbr 210 ------- 1 0.0 1.0 135 135
+ 1.02125 0 1 cbr 210 ------- 1 0.0 1.0 139 139
- 1.02125 0 1 cbr 210 ------- 1 0.0 1.0 139 139
r 1.02168 0 1 cbr 210 ------- 1 0.0 1.0 136 136
+ 1.025 0 1 cbr 210 ------- 1 0.0 1.0 140 140
- 1.025 0 1 cbr 210 ------- 1 0.0 1.0 140 140
r 1.02543 0 1 cbr 210 ------- 1 0.0 1.0 137 137
+ 1.02875 0 1 cbr 210 ------- 1 0.0 1.0 141 141
- 1.02875 0 1 cbr 210 ------- 1 0.0 1.0 141 141
r 1.02918 0 1 cbr 210 ------- 1 0.0 1.0 138 138
+ 1.0325 0 1 cbr 210 ------- 1 0.0 1.0 142 142
- 1.0325 0 1 cbr 210 ------- 1 0.0 1.0 142 142
r 1.03293 0 1 cbr 210 ------- 1 0.0 1.0 139 139
+ 1.03625 0 1 cbr 210 ------- 1 0.0 1.0 143 143
- 1.03625 0 1 cbr 210 ------- 1 0.0 1.0 143 143
r 1.03668 0 1 cbr 210 ------- 1 0.0 1.0 140 140
+ 1.04 0 1 cbr 210 ------- 1 0.0 1.0 144 144
- 1.04 0 1 cbr 210 ------- 1 0.0 1.0 144 144
r 1.04043 0 1 cbr 210 ------- 1 0.0 1.0 141 141
+ 1.04375 0 1 cbr 210 ------- 1 0.0 1.0 145 145
- 1.04375 0 1 cbr 210 ------- 1 0.0 1.0 145 145
r 1.04418 0 1 cbr 210 ------- 1 0.0 1.0 142 142
+ 1.0475 0 1 cbr 210 ------- 1 0.0 1.0 146 146
- 1.0475 0 1 cbr 210 ------- 1 0.0 1.0 146 146
r 1.04793 0 1 cbr 210 ------- 1 0.0 1.0 143 143
+ 1.05125 0 1 cbr 210 ------- 1 0.0 1.0 147 147
- 1.05125 0 1 cbr 210 ------- 1 0.0 1.0 147 147
r 1.05168 0 1 cbr 210 ------- 1 0.0 1.0 144 144
+ 1.055 0 1 cbr 210 ------- 1 0.0 1.0 148 148
- 1.055 0 1 cbr 210 ------- 1 0.0 1.0 148 148
r 1.05543 0 1 cbr 210 ------- 1 0.0 1.0 145 145
+ 1.05875 0 1 cbr 210 ------- 1 0.0 1.0 149 149
- 1.05875 0 1 cbr 210 ------- 1 0.0 1.0 149 149
r 1.05918 0 1 cbr 210 ------- 1 0.0 1.0 146 146
+ 1.0625 0 1 cbr 210 ------- 1 0.0 1.0 150 150
- 1.0625 0 1 cbr 210 ------- 1 0.0 1.0 150 150
r 1.06293 0 1 cbr 210 ------- 1 0.0 1.0 147 147
+ 1.06625 0 1 cbr 210 ------- 1 0.0 1.0 151 151
- 1.06625 0 1 cbr 210 ------- 1 0.0 1.0 151 151
r 1.06668 0 1 cbr 210 ------- 1 0.0 1.0 148 148
+ 1.07 0 1 cbr 210 ------- 1 0.0 1.0 152 152
- 1.07 0 1 cbr 210 ------- 1 0.0 1.0 152 152
r 1.07043 0 1 cbr 210 ------- 1 0.0 1.0 149 149
+ 1.07375 0 1 cbr 210 ------- 1 0.0 1.0 153 153
- 1.07375 0 1 cbr 210 ------- 1 0.0 1.0 153 153
r 1.07418 0 1 cbr 210 ------- 1 0.0 1.0 150 150
+ 1.0775 0 1 cbr 210 ------- 1 0.0 1.0 154 154
- 1.0775 0 1 cbr 210 ------- 1 0.0 1.0 154 154
r 1.07793 0 1 cbr 210 ------- 1 0.0 1.0 151 151
+ 1.08125 0 1 cbr 210 ------- 1 0.0 1.0 155 155
- 1.08125 0 1 cbr 210 ------- 1 0.0 1.0 155 155
r 1.08168 0 1 cbr 210 ------- 1 0.0 1.0 152 152
+ 1.085 0 1 cbr 210 ------- 1 0.0 1.0 156 156
- 1.085 0 1 cbr 210 ------- 1 0.0 1.0 156 156
r 1.08543 0 1 cbr 210 ------- 1 0.0 1.0 153 153
+ 1.08875 0 1 cbr 210 ------- 1 0.0 1.0 157 157
- 1.08875 0 1 cbr 210 ------- 1 0.0 1.0 157 157
r 1.08918 0 1 cbr 210 ------- 1 0.0 1.0 154 154
+ 1.0925 0 1 cbr 210 ------- 1 0.0 1.0 158 158
- 1.0925 0 1 cbr 210 ------- 1 0.0 1.0 158 158
r 1.09293 0 1 cbr 210 ------- 1 0.0 1.0 155 155
+ 1.09625 0 1 cbr 210 ------- 1 0.0 1.0 159 159
- 1.09625 0 1 cbr 210 ------- 1 0.0 1.0 159 159
r 1.09668 0 1 cbr 210 ------- 1 0.0 1.0 156 156
+ 1.1 0 1 cbr 210 ------- 1 0.0 1.0 160 160
- 1.1 0 1 cbr 210 ------- 1 0.0 1.0 160 160
r 1.10043 0 1 cbr 210 ------- 1 0.0 1.0 157 157
+ 1.10375 0 1 cbr 210 ------- 1 0.0 1.0 161 161
- 1.10375 0 1 cbr 210 ------- 1 0.0 1.0 161 161
r 1.10418 0 1 cbr 210 ------- 1 0.0 1.0 158 158
+ 1.1075 0 1 cbr 210 ------- 1 0.0 1.0 162 162
- 1.1075 0 1 cbr 210 ------- 1 0.0 1.0 162 162
r 1.10793 0 1 cbr 210 ------- 1 0.0 1.0 159 159
+ 1.11125 0 1 cbr 210 ------- 1 0.0 1.0 163 163
- 1.11125 0 1 cbr 210 ------- 1 0.0 1.0 163 163
r 1.11168 0 1 cbr 210 ------- 1 0.0 1.0 160 160
+ 1.115 0 1 cbr 210 ------- 1 0.0 1.0 164 164
- 1.115 0 1 cbr 210 ------- 1 0.0 1.0 164 164
r 1.11543 0 1 cbr 210 ------- 1 0.0 1.0 161 161
+ 1.11875 0 1 cbr 210 ------- 1 0.0 1.0 165 165
- 1.11875 0 1 cbr 210 ------- 1 0.0 1.0 165 165
r 1.11918 0 1 cbr 210 ------- 1 0.0 1.0 162 162
+ 1.1225 0 1 cbr 210 ------- 1 0.0 1.0 166 166
- 1.1225 0 1 cbr 210 ------- 1 0.0 1.0 166 166
r 1.12293 0 1 cbr 210 ------- 1 0.0 1.0 163 163
+ 1.12625 0 1 cbr 210 ------- 1 0.0 1.0 167 167
- 1.12625 0 1 cbr 210 ------- 1 0.0 1.0 167 167
r 1.12668 0 1 cbr 210 ------- 1 0.0 1.0 164 164
+ 1.13 0 1 cbr 210 ------- 1 0.0 1.0 168 168
- 1.13 0 1 cbr 210 ------- 1 0.0 1.0 168 168
r 1.13043 0 1 cbr 210 ------- 1 0.0 1.0 165 165
+ 1.13375 0 1 cbr 210 ------- 1 0.0 1.0 169 169
- 1.13375 0 1 cbr 210 ------- 1 0.0 1.0 169 169
r 1.13418 0 1 cbr 210 ------- 1 0.0 1.0 166 166
+ 1.1375 0 1 cbr 210 ------- 1 0.0 1.0 170 170
- 1.1375 0 1 cbr 210 ------- 1 0.0 1.0 170 170
r 1.13793 0 1 cbr 210 ------- 1 0.0 1.0 167 167
+ 1.14125 0 1 cbr 210 ------- 1 0.0 1.0 171 171
- 1.14125 0 1 cbr 210 ------- 1 0.0 1.0 171 171
r 1.14168 0 1 cbr 210 ------- 1 0.0 1.0 168 168
+ 1.145 0 1 cbr 210 ------- 1 0.0 1.0 172 172
- 1.145 0 1 cbr 210 ------- 1 0.0 1.0 172 172
r 1.14543 0 1 cbr 210 ------- 1 0.0 1.0 169 169
+ 1.14875 0 1 cbr 210 ------- 1 0.0 1.0 173 173
- 1.14875 0 1 cbr 210 ------- 1 0.0 1.0 173 173
r 1.14918 0 1 cbr 210 ------- 1 0.0 1.0 170 170
+ 1.1525 0 1 cbr 210 ------- 1 0.0 1.0 174 174
- 1.1525 0 1 cbr 210 ------- 1 0.0 1.0 174 174
r 1.15293 0 1 cbr 210 ------- 1 0.0 1.0 171 171
+ 1.15625 0 1 cbr 210 ------- 1 0.0 1.0 175 175
- 1.15625 0 1 cbr 210 ------- 1 0.0 1.0 175 175
r 1.15668 0 1 cbr 210 ------- 1 0.0 1.0 172 172
+ 1.16 0 1 cbr 210 ------- 1 0.0 1.0 176 176
- 1.16 0 1 cbr 210 ------- 1 0.0 1.0 176 176
r 1.16043 0 1 cbr 210 ------- 1 0.0 1.0 173 173
+ 1.16375 0 1 cbr 210 ------- 1 0.0 1.0 177 177
- 1.16375 0 1 cbr 210 ------- 1 0.0 1.0 177 177
r 1.16418 0 1 cbr 210 ------- 1 0.0 1.0 174 174
+ 1.1675 0 1 cbr 210 ------- 1 0.0 1.0 178 178
- 1.1675 0 1 cbr 210 ------- 1 0.0 1.0 178 178
r 1.16793 0 1 cbr 210 ------- 1 0.0 1.0 175 175
+ 1.17125 0 1 cbr 210 ------- 1 0.0 1.0 179 179
- 1.17125 0 1 cbr 210 ------- 1 0.0 1.0 179 179
r 1.17168 0 1 cbr 210 ------- 1 0.0 1.0 176 176
+ 1.175 0 1 cbr 210 ------- 1 0.0 1.0 180 180
- 1.175 0 1 cbr 210 ------- 1 0.0 1.0 180 180
r 1.17543 0 1 cbr 210 ------- 1 0.0 1.0 177 177
+ 1.17875 0 1 cbr 210 ------- 1 0.0 1.0 181 181
- 1.17875 0 1 cbr 210 ------- 1 0.0 1.0 181 181
r 1.17918 0 1 cbr 210 ------- 1 0.0 1.0 178 178
+ 1.1825 0 1 cbr 210 ------- 1 0.0 1.0 182 182
- 1.1825 0 1 cbr 210 ------- 1 0.0 1.0 182 182
r 1.18293 0 1 cbr 210 ------- 1 0.0 1.0 179 179
+ 1.18625 0 1 cbr 210 ------- 1 0.0 1.0 183 183
- 1.18625 0 1 cbr 210 ------- 1 0.0 1.0 183 183
r 1.18668 0 1 cbr 210 ------- 1 0.0 1.0 180 180
+ 1.19 0 1 cbr 210 ------- 1 0.0 1.0 184 184
- 1.19 0 1 cbr 210 ------- 1 0.0 1.0 184 184
r 1.19043 0 1 cbr 210 ------- 1 0.0 1.0 181 181
+ 1.19375 0 1 cbr 210 ------- 1 0.0 1.0 185 185
- 1.19375 0 1 cbr 210 ------- 1 0.0 1.0 185 185
r 1.19418 0 1 cbr 210 ------- 1 0.0 1.0 182 182
+ 1.1975 0 1 cbr 210 ------- 1 0.0 1.0 186 186
- 1.1975 0 1 cbr 210 ------- 1 0.0 1.0 186 186
r 1.19793 0 1 cbr 210 ------- 1 0.0 1.0 183 183
+ 1.20125 0 1 cbr 210 ------- 1 0.0 1.0 187 187
- 1.20125 0 1 cbr 210 ------- 1 0.0 1.0 187 187
r 1.20168 0 1 cbr 210 ------- 1 0.0 1.0 184 184
+ 1.205 0 1 cbr 210 ------- 1 0.0 1.0 188 188
- 1.205 0 1 cbr 210 ------- 1 0.0 1.0 188 188
r 1.20543 0 1 cbr 210 ------- 1 0.0 1.0 185 185
+ 1.20875 0 1 cbr 210 ------- 1 0.0 1.0 189 189
- 1.20875 0 1 cbr 210 ------- 1 0.0 1.0 189 189
r 1.20918 0 1 cbr 210 ------- 1 0.0 1.0 186 186
+ 1.2125 0 1 cbr 210 ------- 1 0.0 1.0 190 190
- 1.2125 0 1 cbr 210 ------- 1 0.0 1.0 190 190
r 1.21293 0 1 cbr 210 ------- 1 0.0 1.0 187 187
+ 1.21625 0 1 cbr 210 ------- 1 0.0 1.0 191 191
- 1.21625 0 1 cbr 210 ------- 1 0.0 1.0 191 191
r 1.21668 0 1 cbr 210 ------- 1 0.0 1.0 188 188
+ 1.22 0 1 cbr 210 ------- 1 0.0 1.0 192 192
- 1.22 0 1 cbr 210 ------- 1 0.0 1.0 192 192
r 1.22043 0 1 cbr 210 ------- 1 0.0 1.0 189 189
+ 1.22375 0 1 cbr 210 ------- 1 0.0 1.0 193 193
- 1.22375 0 1 cbr 210 ------- 1 0.0 1.0 193 193
r 1.22418 0 1 cbr 210 ------- 1 0.0 1.0 190 190
+ 1.2275 0 1 cbr 210 ------- 1 0.0 1.0 194 194
- 1.2275 0 1 cbr 210 ------- 1 0.0 1.0 194 194
r 1.22793 0 1 cbr 210 ------- 1 0.0 1.0 191 191
+ 1.23125 0 1 cbr 210 ------- 1 0.0 1.0 195 195
- 1.23125 0 1 cbr 210 ------- 1 0.0 1.0 195 195
r 1.23168 0 1 cbr 210 ------- 1 0.0 1.0 192 192
+ 1.235 0 1 cbr 210 ------- 1 0.0 1.0 196 196
- 1.235 0 1 cbr 210 ------- 1 0.0 1.0 196 196
r 1.23543 0 1 cbr 210 ------- 1 0.0 1.0 193 193
+ 1.23875 0 1 cbr 210 ------- 1 0.0 1.0 197 197
- 1.23875 0 1 cbr 210 ------- 1 0.0 1.0 197 197
r 1.23918 0 1 cbr 210 ------- 1 0.0 1.0 194 194
+ 1.2425 0 1 cbr 210 ------- 1 0.0 1.0 198 198
- 1.2425 0 1 cbr 210 ------- 1 0.0 1.0 198 198
r 1.24293 0 1 cbr 210 ------- 1 0.0 1.0 195 195
+ 1.24625 0 1 cbr 210 ------- 1 0.0 1.0 199 199
- 1.24625 0 1 cbr 210 ------- 1 0.0 1.0 199 199
r 1.24668 0 1 cbr 210 ------- 1 0.0 1.0 196 196
+ 1.25 0 1 cbr 210 ------- 1 0.0 1.0 200 200
- 1.25 0 1 cbr 210 ------- 1 0.0 1.0 200 200
r 1.25043 0 1 cbr 210 ------- 1 0.0 1.0 197 197
+ 1.25375 0 1 cbr 210 ------- 1 0.0 1.0 201 201
- 1.25375 0 1 cbr 210 ------- 1 0.0 1.0 201 201
r 1.25418 0 1 cbr 210 ------- 1 0.0 1.0 198 198
+ 1.2575 0 1 cbr 210 ------- 1 0.0 1.0 202 202
- 1.2575 0 1 cbr 210 ------- 1 0.0 1.0 202 202
r 1.25793 0 1 cbr 210 ------- 1 0.0 1.0 199 199
+ 1.26125 0 1 cbr 210 ------- 1 0.0 1.0 203 203
- 1.26125 0 1 cbr 210 ------- 1 0.0 1.0 203 203
r 1.26168 0 1 cbr 210 ------- 1 0.0 1.0 200 200
+ 1.265 0 1 cbr 210 ------- 1 0.0 1.0 204 204
- 1.265 0 1 cbr 210 ------- 1 0.0 1.0 204 204
r 1.26543 0 1 cbr 210 ------- 1 0.0 1.0 201 201
+ 1.26875 0 1 cbr 210 ------- 1 0.0 1.0 205 205
- 1.26875 0 1 cbr 210 ------- 1 0.0 1.0 205 205
r 1.26918 0 1 cbr 210 ------- 1 0.0 1.0 202 202
+ 1.2725 0 1 cbr 210 ------- 1 0.0 1.0 206 206
- 1.2725 0 1 cbr 210 ------- 1 0.0 1.0 206 206
r 1.27293 0 1 cbr 210 ------- 1 0.0 1.0 203 203
+ 1.27625 0 1 cbr 210 ------- 1 0.0 1.0 207 207
- 1.27625 0 1 cbr 210 ------- 1 0.0 1.0 207 207
r 1.27668 0 1 cbr 210 ------- 1 0.0 1.0 204 204
+ 1.28 0 1 cbr 210 ------- 1 0.0 1.0 208 208
- 1.28 0 1 cbr 210 ------- 1 0.0 1.0 208 208
r 1.28043 0 1 cbr 210 ------- 1 0.0 1.0 205 205
+ 1.28375 0 1 cbr 210 ------- 1 0.0 1.0 209 209
- 1.28375 0 1 cbr 210 ------- 1 0.0 1.0 209 209
r 1.28418 0 1 cbr 210 ------- 1 0.0 1.0 206 206
+ 1.2875 0 1 cbr 210 ------- 1 0.0 1.0 210 210
- 1.2875 0 1 cbr 210 ------- 1 0.0 1.0 210 210
r 1.28793 0 1 cbr 210 ------- 1 0.0 1.0 207 207
+ 1.29125 0 1 cbr 210 ------- 1 0.0 1.0 211 211
- 1.29125 0 1 cbr 210 ------- 1 0.0 1.0 211 211
r 1.29168 0 1 cbr 210 ------- 1 0.0 1.0 208 208
+ 1.295 0 1 cbr 210 ------- 1 0.0 1.0 212 212
- 1.295 0 1 cbr 210 ------- 1 0.0 1.0 212 212
r 1.29543 0 1 cbr 210 ------- 1 0.0 1.0 209 209
+ 1.29875 0 1 cbr 210 ------- 1 0.0 1.0 213 213
- 1.29875 0 1 cbr 210 ------- 1 0.0 1.0 213 213
r 1.29918 0 1 cbr 210 ------- 1 0.0 1.0 210 210
+ 1.3025 0 1 cbr 210 ------- 1 0.0 1.0 214 214
- 1.3025 0 1 cbr 210 ------- 1 0.0 1.0 214 214
r 1.30293 0 1 cbr 210 ------- 1 0.0 1.0 211 211
+ 1.30625 0 1 cbr 210 ------- 1 0.0 1.0 215 215
- 1.30625 0 1 cbr 210 ------- 1 0.0 1.0 215 215
r 1.30668 0 1 cbr 210 ------- 1 0.0 1.0 212 212
+ 1.31 0 1 cbr 210 ------- 1 0.0 1.0 216 216