V -t * -v 1.0a5 -a 0
A -t * -n 1 -p 0 -o 0x7fffffff -c 30 -a 1
A -t * -h 1 -m 1073741823 -s 0
c -t * -i 1 -n Blue
c -t * -i 2 -n Red
n -t * -a 0 -s 0 -S UP -v circle -c black -i black
n -t * -a 1 -s 1 -S UP -v circle -c black -i black
n -t * -a 2 -s 2 -S UP -v circle -c black -i black
n -t * -a 3 -s 3 -S UP -v circle -c black -i black
n -t * -a 4 -s 4 -S UP -v circle -c black -i black
n -t * -a 5 -s 5 -S UP -v circle -c black -i black
n -t * -a 6 -s 6 -S UP -v circle -c black -i black
n -t * -a 7 -s 7 -S UP -v circle -c black -i black
n -t * -a 8 -s 8 -S UP -v circle -c black -i black
n -t * -a 9 -s 9 -S UP -v circle -c black -i black
n -t * -a 10 -s 10 -S UP -v circle -c black -i black
n -t * -a 11 -s 11 -S UP -v circle -c black -i black
l -t * -s 0 -d 2 -S UP -r 2000000 -D 0.01 -c black
l -t * -s 0 -d 3 -S UP -r 2000000 -D 0.01 -c black
l -t * -s 0 -d 4 -S UP -r 1700000 -D 0.02 -c black
l -t * -s 0 -d 5 -S UP -r 1500000 -D 0.014999999999999999 -c black
l -t * -s 0 -d 6 -S UP -r 1500000 -D 0.014999999999999999 -c black
l -t * -s 0 -d 1 -S UP -r 1500000 -D 0.014999999999999999 -c black
l -t * -s 1 -d 7 -S UP -r 1500000 -D 0.014999999999999999 -c black
l -t * -s 1 -d 8 -S UP -r 1500000 -D 0.014999999999999999 -c black
l -t * -s 1 -d 9 -S UP -r 1500000 -D 0.014999999999999999 -c black
l -t * -s 1 -d 10 -S UP -r 1500000 -D 0.014999999999999999 -c black
l -t * -s 1 -d 11 -S UP -r 1500000 -D 0.014999999999999999 -c black
+ -t 2 -s 10 -d 1 -p cbr -e 210 -c 2 -i 0 -a 2 -x {10.1 1073741824.0 0 ------- null}
- -t 2 -s 10 -d 1 -p cbr -e 210 -c 2 -i 0 -a 2 -x {10.1 1073741824.0 0 ------- null}
h -t 2 -s 10 -d 1 -p cbr -e 210 -c 2 -i 0 -a 2 -x {10.1 1073741824.0 -1 ------- null}
+ -t 2.00375 -s 10 -d 1 -p cbr -e 210 -c 2 -i 1 -a 2 -x {10.1 1073741824.0 1 ------- null}
- -t 2.00375 -s 10 -d 1 -p cbr -e 210 -c 2 -i 1 -a 2 -x {10.1 1073741824.0 1 ------- null}
h -t 2.00375 -s 10 -d 1 -p cbr -e 210 -c 2 -i 1 -a 2 -x {10.1 1073741824.0 -1 ------- null}
+ -t 2.0075 -s 10 -d 1 -p cbr -e 210 -c 2 -i 2 -a 2 -x {10.1 1073741824.0 2 ------- null}
- -t 2.0075 -s 10 -d 1 -p cbr -e 210 -c 2 -i 2 -a 2 -x {10.1 1073741824.0 2 ------- null}
h -t 2.0075 -s 10 -d 1 -p cbr -e 210 -c 2 -i 2 -a 2 -x {10.1 1073741824.0 -1 ------- null}
+ -t 2.01125 -s 10 -d 1 -p cbr -e 210 -c 2 -i 3 -a 2 -x {10.1 1073741824.0 3 ------- null}
- -t 2.01125 -s 10 -d 1 -p cbr -e 210 -c 2 -i 3 -a 2 -x {10.1 1073741824.0 3 ------- null}
h -t 2.01125 -s 10 -d 1 -p cbr -e 210 -c 2 -i 3 -a 2 -x {10.1 1073741824.0 -1 ------- null}
+ -t 2.015 -s 10 -d 1 -p cbr -e 210 -c 2 -i 4 -a 2 -x {10.1 1073741824.0 4 ------- null}
- -t 2.015 -s 10 -d 1 -p cbr -e 210 -c 2 -i 4 -a 2 -x {10.1 1073741824.0 4 ------- null}
h -t 2.015 -s 10 -d 1 -p cbr -e 210 -c 2 -i 4 -a 2 -x {10.1 1073741824.0 -1 ------- null}
r -t 2.01612 -s 10 -d 1 -p cbr -e 210 -c 2 -i 0 -a 2 -x {10.1 1073741824.0 0 ------- null}
+ -t 2.01612 -s 1 -d 0 -p cbr -e 210 -c 2 -i 0 -a 2 -x {10.1 1073741824.0 0 ------- null}
- -t 2.01612 -s 1 -d 0 -p cbr -e 210 -c 2 -i 0 -a 2 -x {10.1 1073741824.0 0 ------- null}
h -t 2.01612 -s 1 -d 0 -p cbr -e 210 -c 2 -i 0 -a 2 -x {10.1 1073741824.0 -1 ------- null}
+ -t 2.01612 -s 1 -d 7 -p cbr -e 210 -c 2 -i 0 -a 2 -x {10.1 1073741824.0 0 ------- null}
- -t 2.01612 -s 1 -d 7 -p cbr -e 210 -c 2 -i 0 -a 2 -x {10.1 1073741824.0 0 ------- null}
h -t 2.01612 -s 1 -d 7 -p cbr -e 210 -c 2 -i 0 -a 2 -x {10.1 1073741824.0 -1 ------- null}
+ -t 2.01612 -s 1 -d 8 -p cbr -e 210 -c 2 -i 0 -a 2 -x {10.1 1073741824.0 0 ------- null}
- -t 2.01612 -s 1 -d 8 -p cbr -e 210 -c 2 -i 0 -a 2 -x {10.1 1073741824.0 0 ------- null}
h -t 2.01612 -s 1 -d 8 -p cbr -e 210 -c 2 -i 0 -a 2 -x {10.1 1073741824.0 -1 ------- null}
+ -t 2.01612 -s 1 -d 9 -p cbr -e 210 -c 2 -i 0 -a 2 -x {10.1 1073741824.0 0 ------- null}
- -t 2.01612 -s 1 -d 9 -p cbr -e 210 -c 2 -i 0 -a 2 -x {10.1 1073741824.0 0 ------- null}
h -t 2.01612 -s 1 -d 9 -p cbr -e 210 -c 2 -i 0 -a 2 -x {10.1 1073741824.0 -1 ------- null}
+ -t 2.01612 -s 1 -d 11 -p cbr -e 210 -c 2 -i 0 -a 2 -x {10.1 1073741824.0 0 ------- null}
- -t 2.01612 -s 1 -d 11 -p cbr -e 210 -c 2 -i 0 -a 2 -x {10.1 1073741824.0 0 ------- null}
h -t 2.01612 -s 1 -d 11 -p cbr -e 210 -c 2 -i 0 -a 2 -x {10.1 1073741824.0 -1 ------- null}
+ -t 2.01875 -s 10 -d 1 -p cbr -e 210 -c 2 -i 5 -a 2 -x {10.1 1073741824.0 5 ------- null}
- -t 2.01875 -s 10 -d 1 -p cbr -e 210 -c 2 -i 5 -a 2 -x {10.1 1073741824.0 5 ------- null}
h -t 2.01875 -s 10 -d 1 -p cbr -e 210 -c 2 -i 5 -a 2 -x {10.1 1073741824.0 -1 ------- null}
r -t 2.01987 -s 10 -d 1 -p cbr -e 210 -c 2 -i 1 -a 2 -x {10.1 1073741824.0 1 ------- null}
+ -t 2.01987 -s 1 -d 0 -p cbr -e 210 -c 2 -i 1 -a 2 -x {10.1 1073741824.0 1 ------- null}
- -t 2.01987 -s 1 -d 0 -p cbr -e 210 -c 2 -i 1 -a 2 -x {10.1 1073741824.0 1 ------- null}
h -t 2.01987 -s 1 -d 0 -p cbr -e 210 -c 2 -i 1 -a 2 -x {10.1 1073741824.0 -1 ------- null}
+ -t 2.01987 -s 1 -d 7 -p cbr -e 210 -c 2 -i 1 -a 2 -x {10.1 1073741824.0 1 ------- null}
- -t 2.01987 -s 1 -d 7 -p cbr -e 210 -c 2 -i 1 -a 2 -x {10.1 1073741824.0 1 ------- null}
h -t 2.01987 -s 1 -d 7 -p cbr -e 210 -c 2 -i 1 -a 2 -x {10.1 1073741824.0 -1 ------- null}
+ -t 2.01987 -s 1 -d 8 -p cbr -e 210 -c 2 -i 1 -a 2 -x {10.1 1073741824.0 1 ------- null}
- -t 2.01987 -s 1 -d 8 -p cbr -e 210 -c 2 -i 1 -a 2 -x {10.1 1073741824.0 1 ------- null}
h -t 2.01987 -s 1 -d 8 -p cbr -e 210 -c 2 -i 1 -a 2 -x {10.1 1073741824.0 -1 ------- null}
+ -t 2.01987 -s 1 -d 9 -p cbr -e 210 -c 2 -i 1 -a 2 -x {10.1 1073741824.0 1 ------- null}
- -t 2.01987 -s 1 -d 9 -p cbr -e 210 -c 2 -i 1 -a 2 -x {10.1 1073741824.0 1 ------- null}
h -t 2.01987 -s 1 -d 9 -p cbr -e 210 -c 2 -i 1 -a 2 -x {10.1 1073741824.0 -1 ------- null}
+ -t 2.01987 -s 1 -d 11 -p cbr -e 210 -c 2 -i 1 -a 2 -x {10.1 1073741824.0 1 ------- null}
- -t 2.01987 -s 1 -d 11 -p cbr -e 210 -c 2 -i 1 -a 2 -x {10.1 1073741824.0 1 ------- null}
h -t 2.01987 -s 1 -d 11 -p cbr -e 210 -c 2 -i 1 -a 2 -x {10.1 1073741824.0 -1 ------- null}
+ -t 2.0225 -s 10 -d 1 -p cbr -e 210 -c 2 -i 6 -a 2 -x {10.1 1073741824.0 6 ------- null}
- -t 2.0225 -s 10 -d 1 -p cbr -e 210 -c 2 -i 6 -a 2 -x {10.1 1073741824.0 6 ------- null}
h -t 2.0225 -s 10 -d 1 -p cbr -e 210 -c 2 -i 6 -a 2 -x {10.1 1073741824.0 -1 ------- null}
r -t 2.02362 -s 10 -d 1 -p cbr -e 210 -c 2 -i 2 -a 2 -x {10.1 1073741824.0 2 ------- null}
+ -t 2.02362 -s 1 -d 0 -p cbr -e 210 -c 2 -i 2 -a 2 -x {10.1 1073741824.0 2 ------- null}
- -t 2.02362 -s 1 -d 0 -p cbr -e 210 -c 2 -i 2 -a 2 -x {10.1 1073741824.0 2 ------- null}
h -t 2.02362 -s 1 -d 0 -p cbr -e 210 -c 2 -i 2 -a 2 -x {10.1 1073741824.0 -1 ------- null}
+ -t 2.02362 -s 1 -d 7 -p cbr -e 210 -c 2 -i 2 -a 2 -x {10.1 1073741824.0 2 ------- null}
- -t 2.02362 -s 1 -d 7 -p cbr -e 210 -c 2 -i 2 -a 2 -x {10.1 1073741824.0 2 ------- null}
h -t 2.02362 -s 1 -d 7 -p cbr -e 210 -c 2 -i 2 -a 2 -x {10.1 1073741824.0 -1 ------- null}
+ -t 2.02362 -s 1 -d 8 -p cbr -e 210 -c 2 -i 2 -a 2 -x {10.1 1073741824.0 2 ------- null}
- -t 2.02362 -s 1 -d 8 -p cbr -e 210 -c 2 -i 2 -a 2 -x {10.1 1073741824.0 2 ------- null}
h -t 2.02362 -s 1 -d 8 -p cbr -e 210 -c 2 -i 2 -a 2 -x {10.1 1073741824.0 -1 ------- null}
+ -t 2.02362 -s 1 -d 9 -p cbr -e 210 -c 2 -i 2 -a 2 -x {10.1 1073741824.0 2 ------- null}
- -t 2.02362 -s 1 -d 9 -p cbr -e 210 -c 2 -i 2 -a 2 -x {10.1 1073741824.0 2 ------- null}
h -t 2.02362 -s 1 -d 9 -p cbr -e 210 -c 2 -i 2 -a 2 -x {10.1 1073741824.0 -1 ------- null}
+ -t 2.02362 -s 1 -d 11 -p cbr -e 210 -c 2 -i 2 -a 2 -x {10.1 1073741824.0 2 ------- null}
- -t 2.02362 -s 1 -d 11 -p cbr -e 210 -c 2 -i 2 -a 2 -x {10.1 1073741824.0 2 ------- null}
h -t 2.02362 -s 1 -d 11 -p cbr -e 210 -c 2 -i 2 -a 2 -x {10.1 1073741824.0 -1 ------- null}
+ -t 2.02625 -s 10 -d 1 -p cbr -e 210 -c 2 -i 7 -a 2 -x {10.1 1073741824.0 7 ------- null}
- -t 2.02625 -s 10 -d 1 -p cbr -e 210 -c 2 -i 7 -a 2 -x {10.1 1073741824.0 7 ------- null}
h -t 2.02625 -s 10 -d 1 -p cbr -e 210 -c 2 -i 7 -a 2 -x {10.1 1073741824.0 -1 ------- null}
r -t 2.02737 -s 10 -d 1 -p cbr -e 210 -c 2 -i 3 -a 2 -x {10.1 1073741824.0 3 ------- null}
+ -t 2.02737 -s 1 -d 0 -p cbr -e 210 -c 2 -i 3 -a 2 -x {10.1 1073741824.0 3 ------- null}
- -t 2.02737 -s 1 -d 0 -p cbr -e 210 -c 2 -i 3 -a 2 -x {10.1 1073741824.0 3 ------- null}
h -t 2.02737 -s 1 -d 0 -p cbr -e 210 -c 2 -i 3 -a 2 -x {10.1 1073741824.0 -1 ------- null}
+ -t 2.02737 -s 1 -d 7 -p cbr -e 210 -c 2 -i 3 -a 2 -x {10.1 1073741824.0 3 ------- null}
- -t 2.02737 -s 1 -d 7 -p cbr -e 210 -c 2 -i 3 -a 2 -x {10.1 1073741824.0 3 ------- null}
h -t 2.02737 -s 1 -d 7 -p cbr -e 210 -c 2 -i 3 -a 2 -x {10.1 1073741824.0 -1 ------- null}
+ -t 2.02737 -s 1 -d 8 -p cbr -e 210 -c 2 -i 3 -a 2 -x {10.1 1073741824.0 3 ------- null}
- -t 2.02737 -s 1 -d 8 -p cbr -e 210 -c 2 -i 3 -a 2 -x {10.1 1073741824.0 3 ------- null}
h -t 2.02737 -s 1 -d 8 -p cbr -e 210 -c 2 -i 3 -a 2 -x {10.1 1073741824.0 -1 ------- null}
+ -t 2.02737 -s 1 -d 9 -p cbr -e 210 -c 2 -i 3 -a 2 -x {10.1 1073741824.0 3 ------- null}
- -t 2.02737 -s 1 -d 9 -p cbr -e 210 -c 2 -i 3 -a 2 -x {10.1 1073741824.0 3 ------- null}
h -t 2.02737 -s 1 -d 9 -p cbr -e 210 -c 2 -i 3 -a 2 -x {10.1 1073741824.0 -1 ------- null}
+ -t 2.02737 -s 1 -d 11 -p cbr -e 210 -c 2 -i 3 -a 2 -x {10.1 1073741824.0 3 ------- null}
- -t 2.02737 -s 1 -d 11 -p cbr -e 210 -c 2 -i 3 -a 2 -x {10.1 1073741824.0 3 ------- null}
h -t 2.02737 -s 1 -d 11 -p cbr -e 210 -c 2 -i 3 -a 2 -x {10.1 1073741824.0 -1 ------- null}
+ -t 2.03 -s 10 -d 1 -p cbr -e 210 -c 2 -i 8 -a 2 -x {10.1 1073741824.0 8 ------- null}
- -t 2.03 -s 10 -d 1 -p cbr -e 210 -c 2 -i 8 -a 2 -x {10.1 1073741824.0 8 ------- null}
h -t 2.03 -s 10 -d 1 -p cbr -e 210 -c 2 -i 8 -a 2 -x {10.1 1073741824.0 -1 ------- null}
r -t 2.03112 -s 10 -d 1 -p cbr -e 210 -c 2 -i 4 -a 2 -x {10.1 1073741824.0 4 ------- null}
+ -t 2.03112 -s 1 -d 0 -p cbr -e 210 -c 2 -i 4 -a 2 -x {10.1 1073741824.0 4 ------- null}
- -t 2.03112 -s 1 -d 0 -p cbr -e 210 -c 2 -i 4 -a 2 -x {10.1 1073741824.0 4 ------- null}
h -t 2.03112 -s 1 -d 0 -p cbr -e 210 -c 2 -i 4 -a 2 -x {10.1 1073741824.0 -1 ------- null}
+ -t 2.03112 -s 1 -d 7 -p cbr -e 210 -c 2 -i 4 -a 2 -x {10.1 1073741824.0 4 ------- null}
- -t 2.03112 -s 1 -d 7 -p cbr -e 210 -c 2 -i 4 -a 2 -x {10.1 1073741824.0 4 ------- null}
h -t 2.03112 -s 1 -d 7 -p cbr -e 210 -c 2 -i 4 -a 2 -x {10.1 1073741824.0 -1 ------- null}
+ -t 2.03112 -s 1 -d 8 -p cbr -e 210 -c 2 -i 4 -a 2 -x {10.1 1073741824.0 4 ------- null}
- -t 2.03112 -s 1 -d 8 -p cbr -e 210 -c 2 -i 4 -a 2 -x {10.1 1073741824.0 4 ------- null}
h -t 2.03112 -s 1 -d 8 -p cbr -e 210 -c 2 -i 4 -a 2 -x {10.1 1073741824.0 -1 ------- null}
+ -t 2.03112 -s 1 -d 9 -p cbr -e 210 -c 2 -i 4 -a 2 -x {10.1 1073741824.0 4 ------- null}
- -t 2.03112 -s 1 -d 9 -p cbr -e 210 -c 2 -i 4 -a 2 -x {10.1 1073741824.0 4 ------- null}
h -t 2.03112 -s 1 -d 9 -p cbr -e 210 -c 2 -i 4 -a 2 -x {10.1 1073741824.0 -1 ------- null}
+ -t 2.03112 -s 1 -d 11 -p cbr -e 210 -c 2 -i 4 -a 2 -x {10.1 1073741824.0 4 ------- null}
- -t 2.03112 -s 1 -d 11 -p cbr -e 210 -c 2 -i 4 -a 2 -x {10.1 1073741824.0 4 ------- null}
h -t 2.03112 -s 1 -d 11 -p cbr -e 210 -c 2 -i 4 -a 2 -x {10.1 1073741824.0 -1 ------- null}
r -t 2.03224 -s 1 -d 0 -p cbr -e 210 -c 2 -i 0 -a 2 -x {10.1 1073741824.0 0 ------- null}
+ -t 2.03224 -s 0 -d 3 -p cbr -e 210 -c 2 -i 0 -a 2 -x {10.1 1073741824.0 0 ------- null}
- -t 2.03224 -s 0 -d 3 -p cbr -e 210 -c 2 -i 0 -a 2 -x {10.1 1073741824.0 0 ------- null}
h -t 2.03224 -s 0 -d 3 -p cbr -e 210 -c 2 -i 0 -a 2 -x {10.1 1073741824.0 -1 ------- null}
+ -t 2.03224 -s 0 -d 4 -p cbr -e 210 -c 2 -i 0 -a 2 -x {10.1 1073741824.0 0 ------- null}
- -t 2.03224 -s 0 -d 4 -p cbr -e 210 -c 2 -i 0 -a 2 -x {10.1 1073741824.0 0 ------- null}
h -t 2.03224 -s 0 -d 4 -p cbr -e 210 -c 2 -i 0 -a 2 -x {10.1 1073741824.0 -1 ------- null}
+ -t 2.03224 -s 0 -d 5 -p cbr -e 210 -c 2 -i 0 -a 2 -x {10.1 1073741824.0 0 ------- null}
- -t 2.03224 -s 0 -d 5 -p cbr -e 210 -c 2 -i 0 -a 2 -x {10.1 1073741824.0 0 ------- null}
h -t 2.03224 -s 0 -d 5 -p cbr -e 210 -c 2 -i 0 -a 2 -x {10.1 1073741824.0 -1 ------- null}
+ -t 2.03224 -s 0 -d 6 -p cbr -e 210 -c 2 -i 0 -a 2 -x {10.1 1073741824.0 0 ------- null}
- -t 2.03224 -s 0 -d 6 -p cbr -e 210 -c 2 -i 0 -a 2 -x {10.1 1073741824.0 0 ------- null}
h -t 2.03224 -s 0 -d 6 -p cbr -e 210 -c 2 -i 0 -a 2 -x {10.1 1073741824.0 -1 ------- null}
+ -t 2.03224 -s 0 -d 2 -p cbr -e 210 -c 2 -i 0 -a 2 -x {10.1 1073741824.0 0 ------- null}
- -t 2.03224 -s 0 -d 2 -p cbr -e 210 -c 2 -i 0 -a 2 -x {10.1 1073741824.0 0 ------- null}
h -t 2.03224 -s 0 -d 2 -p cbr -e 210 -c 2 -i 0 -a 2 -x {10.1 1073741824.0 -1 ------- null}
r -t 2.03224 -s 1 -d 7 -p cbr -e 210 -c 2 -i 0 -a 2 -x {10.1 1073741824.0 0 ------- null}
+ -t 2.03224 -s 7 -d 1 -p prune -e 80 -c 30 -i 9 -a 30 -x {7.0 1.0 -1 ------- null}
- -t 2.03224 -s 7 -d 1 -p prune -e 80 -c 30 -i 9 -a 30 -x {7.0 1.0 -1 ------- null}
h -t 2.03224 -s 7 -d 1 -p prune -e 80 -c 30 -i 9 -a 30 -x {7.0 1.0 -1 ------- null}
r -t 2.03224 -s 1 -d 8 -p cbr -e 210 -c 2 -i 0 -a 2 -x {10.1 1073741824.0 0 ------- null}
+ -t 2.03224 -s 8 -d 1 -p prune -e 80 -c 30 -i 10 -a 30 -x {8.0 1.0 -1 ------- null}
- -t 2.03224 -s 8 -d 1 -p prune -e 80 -c 30 -i 10 -a 30 -x {8.0 1.0 -1 ------- null}
h -t 2.03224 -s 8 -d 1 -p prune -e 80 -c 30 -i 10 -a 30 -x {8.0 1.0 -1 ------- null}
r -t 2.03224 -s 1 -d 9 -p cbr -e 210 -c 2 -i 0 -a 2 -x {10.1 1073741824.0 0 ------- null}
+ -t 2.03224 -s 9 -d 1 -p prune -e 80 -c 30 -i 11 -a 30 -x {9.0 1.0 -1 ------- null}
- -t 2.03224 -s 9 -d 1 -p prune -e 80 -c 30 -i 11 -a 30 -x {9.0 1.0 -1 ------- null}
h -t 2.03224 -s 9 -d 1 -p prune -e 80 -c 30 -i 11 -a 30 -x {9.0 1.0 -1 ------- null}
r -t 2.03224 -s 1 -d 11 -p cbr -e 210 -c 2 -i 0 -a 2 -x {10.1 1073741824.0 0 ------- null}
+ -t 2.03224 -s 11 -d 1 -p prune -e 80 -c 30 -i 12 -a 30 -x {11.0 1.0 -1 ------- null}
- -t 2.03224 -s 11 -d 1 -p prune -e 80 -c 30 -i 12 -a 30 -x {11.0 1.0 -1 ------- null}
h -t 2.03224 -s 11 -d 1 -p prune -e 80 -c 30 -i 12 -a 30 -x {11.0 1.0 -1 ------- null}
+ -t 2.03375 -s 10 -d 1 -p cbr -e 210 -c 2 -i 13 -a 2 -x {10.1 1073741824.0 9 ------- null}
- -t 2.03375 -s 10 -d 1 -p cbr -e 210 -c 2 -i 13 -a 2 -x {10.1 1073741824.0 9 ------- null}
h -t 2.03375 -s 10 -d 1 -p cbr -e 210 -c 2 -i 13 -a 2 -x {10.1 1073741824.0 -1 ------- null}
r -t 2.03487 -s 10 -d 1 -p cbr -e 210 -c 2 -i 5 -a 2 -x {10.1 1073741824.0 5 ------- null}
+ -t 2.03487 -s 1 -d 0 -p cbr -e 210 -c 2 -i 5 -a 2 -x {10.1 1073741824.0 5 ------- null}
- -t 2.03487 -s 1 -d 0 -p cbr -e 210 -c 2 -i 5 -a 2 -x {10.1 1073741824.0 5 ------- null}
h -t 2.03487 -s 1 -d 0 -p cbr -e 210 -c 2 -i 5 -a 2 -x {10.1 1073741824.0 -1 ------- null}
+ -t 2.03487 -s 1 -d 7 -p cbr -e 210 -c 2 -i 5 -a 2 -x {10.1 1073741824.0 5 ------- null}
- -t 2.03487 -s 1 -d 7 -p cbr -e 210 -c 2 -i 5 -a 2 -x {10.1 1073741824.0 5 ------- null}
h -t 2.03487 -s 1 -d 7 -p cbr -e 210 -c 2 -i 5 -a 2 -x {10.1 1073741824.0 -1 ------- null}
+ -t 2.03487 -s 1 -d 8 -p cbr -e 210 -c 2 -i 5 -a 2 -x {10.1 1073741824.0 5 ------- null}
- -t 2.03487 -s 1 -d 8 -p cbr -e 210 -c 2 -i 5 -a 2 -x {10.1 1073741824.0 5 ------- null}
h -t 2.03487 -s 1 -d 8 -p cbr -e 210 -c 2 -i 5 -a 2 -x {10.1 1073741824.0 -1 ------- null}
+ -t 2.03487 -s 1 -d 9 -p cbr -e 210 -c 2 -i 5 -a 2 -x {10.1 1073741824.0 5 ------- null}
- -t 2.03487 -s 1 -d 9 -p cbr -e 210 -c 2 -i 5 -a 2 -x {10.1 1073741824.0 5 ------- null}
h -t 2.03487 -s 1 -d 9 -p cbr -e 210 -c 2 -i 5 -a 2 -x {10.1 1073741824.0 -1 ------- null}
+ -t 2.03487 -s 1 -d 11 -p cbr -e 210 -c 2 -i 5 -a 2 -x {10.1 1073741824.0 5 ------- null}
- -t 2.03487 -s 1 -d 11 -p cbr -e 210 -c 2 -i 5 -a 2 -x {10.1 1073741824.0 5 ------- null}
h -t 2.03487 -s 1 -d 11 -p cbr -e 210 -c 2 -i 5 -a 2 -x {10.1 1073741824.0 -1 ------- null}
r -t 2.03599 -s 1 -d 0 -p cbr -e 210 -c 2 -i 1 -a 2 -x {10.1 1073741824.0 1 ------- null}
+ -t 2.03599 -s 0 -d 3 -p cbr -e 210 -c 2 -i 1 -a 2 -x {10.1 1073741824.0 1 ------- null}
- -t 2.03599 -s 0 -d 3 -p cbr -e 210 -c 2 -i 1 -a 2 -x {10.1 1073741824.0 1 ------- null}
h -t 2.03599 -s 0 -d 3 -p cbr -e 210 -c 2 -i 1 -a 2 -x {10.1 1073741824.0 -1 ------- null}
+ -t 2.03599 -s 0 -d 4 -p cbr -e 210 -c 2 -i 1 -a 2 -x {10.1 1073741824.0 1 ------- null}
- -t 2.03599 -s 0 -d 4 -p cbr -e 210 -c 2 -i 1 -a 2 -x {10.1 1073741824.0 1 ------- null}
h -t 2.03599 -s 0 -d 4 -p cbr -e 210 -c 2 -i 1 -a 2 -x {10.1 1073741824.0 -1 ------- null}
+ -t 2.03599 -s 0 -d 5 -p cbr -e 210 -c 2 -i 1 -a 2 -x {10.1 1073741824.0 1 ------- null}
- -t 2.03599 -s 0 -d 5 -p cbr -e 210 -c 2 -i 1 -a 2 -x {10.1 1073741824.0 1 ------- null}
h -t 2.03599 -s 0 -d 5 -p cbr -e 210 -c 2 -i 1 -a 2 -x {10.1 1073741824.0 -1 ------- null}
+ -t 2.03599 -s 0 -d 6 -p cbr -e 210 -c 2 -i 1 -a 2 -x {10.1 1073741824.0 1 ------- null}
- -t 2.03599 -s 0 -d 6 -p cbr -e 210 -c 2 -i 1 -a 2 -x {10.1 1073741824.0 1 ------- null}
h -t 2.03599 -s 0 -d 6 -p cbr -e 210 -c 2 -i 1 -a 2 -x {10.1 1073741824.0 -1 ------- null}
+ -t 2.03599 -s 0 -d 2 -p cbr -e 210 -c 2 -i 1 -a 2 -x {10.1 1073741824.0 1 ------- null}
- -t 2.03599 -s 0 -d 2 -p cbr -e 210 -c 2 -i 1 -a 2 -x {10.1 1073741824.0 1 ------- null}
h -t 2.03599 -s 0 -d 2 -p cbr -e 210 -c 2 -i 1 -a 2 -x {10.1 1073741824.0 -1 ------- null}
r -t 2.03599 -s 1 -d 7 -p cbr -e 210 -c 2 -i 1 -a 2 -x {10.1 1073741824.0 1 ------- null}
+ -t 2.03599 -s 7 -d 1 -p prune -e 80 -c 30 -i 14 -a 30 -x {7.0 1.0 -1 ------- null}
- -t 2.03599 -s 7 -d 1 -p prune -e 80 -c 30 -i 14 -a 30 -x {7.0 1.0 -1 ------- null}
h -t 2.03599 -s 7 -d 1 -p prune -e 80 -c 30 -i 14 -a 30 -x {7.0 1.0 -1 ------- null}
r -t 2.03599 -s 1 -d 8 -p cbr -e 210 -c 2 -i 1 -a 2 -x {10.1 1073741824.0 1 ------- null}
+ -t 2.03599 -s 8 -d 1 -p prune -e 80 -c 30 -i 15 -a 30 -x {8.0 1.0 -1 ------- null}
- -t 2.03599 -s 8 -d 1 -p prune -e 80 -c 30 -i 15 -a 30 -x {8.0 1.0 -1 ------- null}
h -t 2.03599 -s 8 -d 1 -p prune -e 80 -c 30 -i 15 -a 30 -x {8.0 1.0 -1 ------- null}
r -t 2.03599 -s 1 -d 9 -p cbr -e 210 -c 2 -i 1 -a 2 -x {10.1 1073741824.0 1 ------- null}
+ -t 2.03599 -s 9 -d 1 -p prune -e 80 -c 30 -i 16 -a 30 -x {9.0 1.0 -1 ------- null}
- -t 2.03599 -s 9 -d 1 -p prune -e 80 -c 30 -i 16 -a 30 -x {9.0 1.0 -1 ------- null}
h -t 2.03599 -s 9 -d 1 -p prune -e 80 -c 30 -i 16 -a 30 -x {9.0 1.0 -1 ------- null}
r -t 2.03599 -s 1 -d 11 -p cbr -e 210 -c 2 -i 1 -a 2 -x {10.1 1073741824.0 1 ------- null}
+ -t 2.03599 -s 11 -d 1 -p prune -e 80 -c 30 -i 17 -a 30 -x {11.0 1.0 -1 ------- null}
- -t 2.03599 -s 11 -d 1 -p prune -e 80 -c 30 -i 17 -a 30 -x {11.0 1.0 -1 ------- null}
h -t 2.03599 -s 11 -d 1 -p prune -e 80 -c 30 -i 17 -a 30 -x {11.0 1.0 -1 ------- null}
+ -t 2.0375 -s 10 -d 1 -p cbr -e 210 -c 2 -i 18 -a 2 -x {10.1 1073741824.0 10 ------- null}
- -t 2.0375 -s 10 -d 1 -p cbr -e 210 -c 2 -i 18 -a 2 -x {10.1 1073741824.0 10 ------- null}
h -t 2.0375 -s 10 -d 1 -p cbr -e 210 -c 2 -i 18 -a 2 -x {10.1 1073741824.0 -1 ------- null}
r -t 2.03862 -s 10 -d 1 -p cbr -e 210 -c 2 -i 6 -a 2 -x {10.1 1073741824.0 6 ------- null}
+ -t 2.03862 -s 1 -d 0 -p cbr -e 210 -c 2 -i 6 -a 2 -x {10.1 1073741824.0 6 ------- null}
- -t 2.03862 -s 1 -d 0 -p cbr -e 210 -c 2 -i 6 -a 2 -x {10.1 1073741824.0 6 ------- null}
h -t 2.03862 -s 1 -d 0 -p cbr -e 210 -c 2 -i 6 -a 2 -x {10.1 1073741824.0 -1 ------- null}
+ -t 2.03862 -s 1 -d 7 -p cbr -e 210 -c 2 -i 6 -a 2 -x {10.1 1073741824.0 6 ------- null}
- -t 2.03862 -s 1 -d 7 -p cbr -e 210 -c 2 -i 6 -a 2 -x {10.1 1073741824.0 6 ------- null}
h -t 2.03862 -s 1 -d 7 -p cbr -e 210 -c 2 -i 6 -a 2 -x {10.1 1073741824.0 -1 ------- null}
+ -t 2.03862 -s 1 -d 8 -p cbr -e 210 -c 2 -i 6 -a 2 -x {10.1 1073741824.0 6 ------- null}
- -t 2.03862 -s 1 -d 8 -p cbr -e 210 -c 2 -i 6 -a 2 -x {10.1 1073741824.0 6 ------- null}
h -t 2.03862 -s 1 -d 8 -p cbr -e 210 -c 2 -i 6 -a 2 -x {10.1 1073741824.0 -1 ------- null}
+ -t 2.03862 -s 1 -d 9 -p cbr -e 210 -c 2 -i 6 -a 2 -x {10.1 1073741824.0 6 ------- null}
- -t 2.03862 -s 1 -d 9 -p cbr -e 210 -c 2 -i 6 -a 2 -x {10.1 1073741824.0 6 ------- null}
h -t 2.03862 -s 1 -d 9 -p cbr -e 210 -c 2 -i 6 -a 2 -x {10.1 1073741824.0 -1 ------- null}
+ -t 2.03862 -s 1 -d 11 -p cbr -e 210 -c 2 -i 6 -a 2 -x {10.1 1073741824.0 6 ------- null}
- -t 2.03862 -s 1 -d 11 -p cbr -e 210 -c 2 -i 6 -a 2 -x {10.1 1073741824.0 6 ------- null}
h -t 2.03862 -s 1 -d 11 -p cbr -e 210 -c 2 -i 6 -a 2 -x {10.1 1073741824.0 -1 ------- null}
r -t 2.03974 -s 1 -d 0 -p cbr -e 210 -c 2 -i 2 -a 2 -x {10.1 1073741824.0 2 ------- null}
+ -t 2.03974 -s 0 -d 3 -p cbr -e 210 -c 2 -i 2 -a 2 -x {10.1 1073741824.0 2 ------- null}
- -t 2.03974 -s 0 -d 3 -p cbr -e 210 -c 2 -i 2 -a 2 -x {10.1 1073741824.0 2 ------- null}
h -t 2.03974 -s 0 -d 3 -p cbr -e 210 -c 2 -i 2 -a 2 -x {10.1 1073741824.0 -1 ------- null}
+ -t 2.03974 -s 0 -d 4 -p cbr -e 210 -c 2 -i 2 -a 2 -x {10.1 1073741824.0 2 ------- null}
- -t 2.03974 -s 0 -d 4 -p cbr -e 210 -c 2 -i 2 -a 2 -x {10.1 1073741824.0 2 ------- null}
h -t 2.03974 -s 0 -d 4 -p cbr -e 210 -c 2 -i 2 -a 2 -x {10.1 1073741824.0 -1 ------- null}
+ -t 2.03974 -s 0 -d 5 -p cbr -e 210 -c 2 -i 2 -a 2 -x {10.1 1073741824.0 2 ------- null}
- -t 2.03974 -s 0 -d 5 -p cbr -e 210 -c 2 -i 2 -a 2 -x {10.1 1073741824.0 2 ------- null}
h -t 2.03974 -s 0 -d 5 -p cbr -e 210 -c 2 -i 2 -a 2 -x {10.1 1073741824.0 -1 ------- null}
+ -t 2.03974 -s 0 -d 6 -p cbr -e 210 -c 2 -i 2 -a 2 -x {10.1 1073741824.0 2 ------- null}
- -t 2.03974 -s 0 -d 6 -p cbr -e 210 -c 2 -i 2 -a 2 -x {10.1 1073741824.0 2 ------- null}
h -t 2.03974 -s 0 -d 6 -p cbr -e 210 -c 2 -i 2 -a 2 -x {10.1 1073741824.0 -1 ------- null}
+ -t 2.03974 -s 0 -d 2 -p cbr -e 210 -c 2 -i 2 -a 2 -x {10.1 1073741824.0 2 ------- null}
- -t 2.03974 -s 0 -d 2 -p cbr -e 210 -c 2 -i 2 -a 2 -x {10.1 1073741824.0 2 ------- null}
h -t 2.03974 -s 0 -d 2 -p cbr -e 210 -c 2 -i 2 -a 2 -x {10.1 1073741824.0 -1 ------- null}
r -t 2.03974 -s 1 -d 7 -p cbr -e 210 -c 2 -i 2 -a 2 -x {10.1 1073741824.0 2 ------- null}
+ -t 2.03974 -s 7 -d 1 -p prune -e 80 -c 30 -i 19 -a 30 -x {7.0 1.0 -1 ------- null}
- -t 2.03974 -s 7 -d 1 -p prune -e 80 -c 30 -i 19 -a 30 -x {7.0 1.0 -1 ------- null}
h -t 2.03974 -s 7 -d 1 -p prune -e 80 -c 30 -i 19 -a 30 -x {7.0 1.0 -1 ------- null}
r -t 2.03974 -s 1 -d 8 -p cbr -e 210 -c 2 -i 2 -a 2 -x {10.1 1073741824.0 2 ------- null}
+ -t 2.03974 -s 8 -d 1 -p prune -e 80 -c 30 -i 20 -a 30 -x {8.0 1.0 -1 ------- null}
- -t 2.03974 -s 8 -d 1 -p prune -e 80 -c 30 -i 20 -a 30 -x {8.0 1.0 -1 ------- null}
h -t 2.03974 -s 8 -d 1 -p prune -e 80 -c 30 -i 20 -a 30 -x {8.0 1.0 -1 ------- null}
r -t 2.03974 -s 1 -d 9 -p cbr -e 210 -c 2 -i 2 -a 2 -x {10.1 1073741824.0 2 ------- null}
+ -t 2.03974 -s 9 -d 1 -p prune -e 80 -c 30 -i 21 -a 30 -x {9.0 1.0 -1 ------- null}
- -t 2.03974 -s 9 -d 1 -p prune -e 80 -c 30 -i 21 -a 30 -x {9.0 1.0 -1 ------- null}
h -t 2.03974 -s 9 -d 1 -p prune -e 80 -c 30 -i 21 -a 30 -x {9.0 1.0 -1 ------- null}
r -t 2.03974 -s 1 -d 11 -p cbr -e 210 -c 2 -i 2 -a 2 -x {10.1 1073741824.0 2 ------- null}
+ -t 2.03974 -s 11 -d 1 -p prune -e 80 -c 30 -i 22 -a 30 -x {11.0 1.0 -1 ------- null}
- -t 2.03974 -s 11 -d 1 -p prune -e 80 -c 30 -i 22 -a 30 -x {11.0 1.0 -1 ------- null}
h -t 2.03974 -s 11 -d 1 -p prune -e 80 -c 30 -i 22 -a 30 -x {11.0 1.0 -1 ------- null}
+ -t 2.04125 -s 10 -d 1 -p cbr -e 210 -c 2 -i 23 -a 2 -x {10.1 1073741824.0 11 ------- null}
- -t 2.04125 -s 10 -d 1 -p cbr -e 210 -c 2 -i 23 -a 2 -x {10.1 1073741824.0 11 ------- null}
h -t 2.04125 -s 10 -d 1 -p cbr -e 210 -c 2 -i 23 -a 2 -x {10.1 1073741824.0 -1 ------- null}
r -t 2.04237 -s 10 -d 1 -p cbr -e 210 -c 2 -i 7 -a 2 -x {10.1 1073741824.0 7 ------- null}
+ -t 2.04237 -s 1 -d 0 -p cbr -e 210 -c 2 -i 7 -a 2 -x {10.1 1073741824.0 7 ------- null}
- -t 2.04237 -s 1 -d 0 -p cbr -e 210 -c 2 -i 7 -a 2 -x {10.1 1073741824.0 7 ------- null}
h -t 2.04237 -s 1 -d 0 -p cbr -e 210 -c 2 -i 7 -a 2 -x {10.1 1073741824.0 -1 ------- null}
+ -t 2.04237 -s 1 -d 7 -p cbr -e 210 -c 2 -i 7 -a 2 -x {10.1 1073741824.0 7 ------- null}
- -t 2.04237 -s 1 -d 7 -p cbr -e 210 -c 2 -i 7 -a 2 -x {10.1 1073741824.0 7 ------- null}
h -t 2.04237 -s 1 -d 7 -p cbr -e 210 -c 2 -i 7 -a 2 -x {10.1 1073741824.0 -1 ------- null}
+ -t 2.04237 -s 1 -d 8 -p cbr -e 210 -c 2 -i 7 -a 2 -x {10.1 1073741824.0 7 ------- null}
- -t 2.04237 -s 1 -d 8 -p cbr -e 210 -c 2 -i 7 -a 2 -x {10.1 1073741824.0 7 ------- null}
h -t 2.04237 -s 1 -d 8 -p cbr -e 210 -c 2 -i 7 -a 2 -x {10.1 1073741824.0 -1 ------- null}
+ -t 2.04237 -s 1 -d 9 -p cbr -e 210 -c 2 -i 7 -a 2 -x {10.1 1073741824.0 7 ------- null}
- -t 2.04237 -s 1 -d 9 -p cbr -e 210 -c 2 -i 7 -a 2 -x {10.1 1073741824.0 7 ------- null}
h -t 2.04237 -s 1 -d 9 -p cbr -e 210 -c 2 -i 7 -a 2 -x {10.1 1073741824.0 -1 ------- null}
+ -t 2.04237 -s 1 -d 11 -p cbr -e 210 -c 2 -i 7 -a 2 -x {10.1 1073741824.0 7 ------- null}
- -t 2.04237 -s 1 -d 11 -p cbr -e 210 -c 2 -i 7 -a 2 -x {10.1 1073741824.0 7 ------- null}
h -t 2.04237 -s 1 -d 11 -p cbr -e 210 -c 2 -i 7 -a 2 -x {10.1 1073741824.0 -1 ------- null}
r -t 2.04308 -s 0 -d 3 -p cbr -e 210 -c 2 -i 0 -a 2 -x {10.1 1073741824.0 0 ------- null}
r -t 2.04308 -s 0 -d 2 -p cbr -e 210 -c 2 -i 0 -a 2 -x {10.1 1073741824.0 0 ------- null}
r -t 2.04349 -s 1 -d 0 -p cbr -e 210 -c 2 -i 3 -a 2 -x {10.1 1073741824.0 3 ------- null}
+ -t 2.04349 -s 0 -d 3 -p cbr -e 210 -c 2 -i 3 -a 2 -x {10.1 1073741824.0 3 ------- null}
- -t 2.04349 -s 0 -d 3 -p cbr -e 210 -c 2 -i 3 -a 2 -x {10.1 1073741824.0 3 ------- null}
h -t 2.04349 -s 0 -d 3 -p cbr -e 210 -c 2 -i 3 -a 2 -x {10.1 1073741824.0 -1 ------- null}
+ -t 2.04349 -s 0 -d 4 -p cbr -e 210 -c 2 -i 3 -a 2 -x {10.1 1073741824.0 3 ------- null}
- -t 2.04349 -s 0 -d 4 -p cbr -e 210 -c 2 -i 3 -a 2 -x {10.1 1073741824.0 3 ------- null}
h -t 2.04349 -s 0 -d 4 -p cbr -e 210 -c 2 -i 3 -a 2 -x {10.1 1073741824.0 -1 ------- null}
+ -t 2.04349 -s 0 -d 5 -p cbr -e 210 -c 2 -i 3 -a 2 -x {10.1 1073741824.0 3 ------- null}
- -t 2.04349 -s 0 -d 5 -p cbr -e 210 -c 2 -i 3 -a 2 -x {10.1 1073741824.0 3 ------- null}
h -t 2.04349 -s 0 -d 5 -p cbr -e 210 -c 2 -i 3 -a 2 -x {10.1 1073741824.0 -1 ------- null}
+ -t 2.04349 -s 0 -d 6 -p cbr -e 210 -c 2 -i 3 -a 2 -x {10.1 1073741824.0 3 ------- null}
- -t 2.04349 -s 0 -d 6 -p cbr -e 210 -c 2 -i 3 -a 2 -x {10.1 1073741824.0 3 ------- null}
h -t 2.04349 -s 0 -d 6 -p cbr -e 210 -c 2 -i 3 -a 2 -x {10.1 1073741824.0 -1 ------- null}
+ -t 2.04349 -s 0 -d 2 -p cbr -e 210 -c 2 -i 3 -a 2 -x {10.1 1073741824.0 3 ------- null}
- -t 2.04349 -s 0 -d 2 -p cbr -e 210 -c 2 -i 3 -a 2 -x {10.1 1073741824.0 3 ------- null}
h -t 2.04349 -s 0 -d 2 -p cbr -e 210 -c 2 -i 3 -a 2 -x {10.1 1073741824.0 -1 ------- null}
r -t 2.04349 -s 1 -d 7 -p cbr -e 210 -c 2 -i 3 -a 2 -x {10.1 1073741824.0 3 ------- null}
+ -t 2.04349 -s 7 -d 1 -p prune -e 80 -c 30 -i 24 -a 30 -x {7.0 1.0 -1 ------- null}
- -t 2.04349 -s 7 -d 1 -p prune -e 80 -c 30 -i 24 -a 30 -x {7.0 1.0 -1 ------- null}
h -t 2.04349 -s 7 -d 1 -p prune -e 80 -c 30 -i 24 -a 30 -x {7.0 1.0 -1 ------- null}
r -t 2.04349 -s 1 -d 8 -p cbr -e 210 -c 2 -i 3 -a 2 -x {10.1 1073741824.0 3 ------- null}
+ -t 2.04349 -s 8 -d 1 -p prune -e 80 -c 30 -i 25 -a 30 -x {8.0 1.0 -1 ------- null}
- -t 2.04349 -s 8 -d 1 -p prune -e 80 -c 30 -i 25 -a 30 -x {8.0 1.0 -1 ------- null}
h -t 2.04349 -s 8 -d 1 -p prune -e 80 -c 30 -i 25 -a 30 -x {8.0 1.0 -1 ------- null}
r -t 2.04349 -s 1 -d 9 -p cbr -e 210 -c 2 -i 3 -a 2 -x {10.1 1073741824.0 3 ------- null}
+ -t 2.04349 -s 9 -d 1 -p prune -e 80 -c 30 -i 26 -a 30 -x {9.0 1.0 -1 ------- null}
- -t 2.04349 -s 9 -d 1 -p prune -e 80 -c 30 -i 26 -a 30 -x {9.0 1.0 -1 ------- null}
h -t 2.04349 -s 9 -d 1 -p prune -e 80 -c 30 -i 26 -a 30 -x {9.0 1.0 -1 ------- null}
r -t 2.04349 -s 1 -d 11 -p cbr -e 210 -c 2 -i 3 -a 2 -x {10.1 1073741824.0 3 ------- null}
+ -t 2.04349 -s 11 -d 1 -p prune -e 80 -c 30 -i 27 -a 30 -x {11.0 1.0 -1 ------- null}
- -t 2.04349 -s 11 -d 1 -p prune -e 80 -c 30 -i 27 -a 30 -x {11.0 1.0 -1 ------- null}
h -t 2.04349 -s 11 -d 1 -p prune -e 80 -c 30 -i 27 -a 30 -x {11.0 1.0 -1 ------- null}
+ -t 2.045 -s 10 -d 1 -p cbr -e 210 -c 2 -i 28 -a 2 -x {10.1 1073741824.0 12 ------- null}
- -t 2.045 -s 10 -d 1 -p cbr -e 210 -c 2 -i 28 -a 2 -x {10.1 1073741824.0 12 ------- null}
h -t 2.045 -s 10 -d 1 -p cbr -e 210 -c 2 -i 28 -a 2 -x {10.1 1073741824.0 -1 ------- null}
r -t 2.04612 -s 10 -d 1 -p cbr -e 210 -c 2 -i 8 -a 2 -x {10.1 1073741824.0 8 ------- null}
+ -t 2.04612 -s 1 -d 0 -p cbr -e 210 -c 2 -i 8 -a 2 -x {10.1 1073741824.0 8 ------- null}
- -t 2.04612 -s 1 -d 0 -p cbr -e 210 -c 2 -i 8 -a 2 -x {10.1 1073741824.0 8 ------- null}
h -t 2.04612 -s 1 -d 0 -p cbr -e 210 -c 2 -i 8 -a 2 -x {10.1 1073741824.0 -1 ------- null}
+ -t 2.04612 -s 1 -d 7 -p cbr -e 210 -c 2 -i 8 -a 2 -x {10.1 1073741824.0 8 ------- null}
- -t 2.04612 -s 1 -d 7 -p cbr -e 210 -c 2 -i 8 -a 2 -x {10.1 1073741824.0 8 ------- null}
h -t 2.04612 -s 1 -d 7 -p cbr -e 210 -c 2 -i 8 -a 2 -x {10.1 1073741824.0 -1 ------- null}
+ -t 2.04612 -s 1 -d 8 -p cbr -e 210 -c 2 -i 8 -a 2 -x {10.1 1073741824.0 8 ------- null}
- -t 2.04612 -s 1 -d 8 -p cbr -e 210 -c 2 -i 8 -a 2 -x {10.1 1073741824.0 8 ------- null}
h -t 2.04612 -s 1 -d 8 -p cbr -e 210 -c 2 -i 8 -a 2 -x {10.1 1073741824.0 -1 ------- null}
+ -t 2.04612 -s 1 -d 9 -p cbr -e 210 -c 2 -i 8 -a 2 -x {10.1 1073741824.0 8 ------- null}
- -t 2.04612 -s 1 -d 9 -p cbr -e 210 -c 2 -i 8 -a 2 -x {10.1 1073741824.0 8 ------- null}
h -t 2.04612 -s 1 -d 9 -p cbr -e 210 -c 2 -i 8 -a 2 -x {10.1 1073741824.0 -1 ------- null}
+ -t 2.04612 -s 1 -d 11 -p cbr -e 210 -c 2 -i 8 -a 2 -x {10.1 1073741824.0 8 ------- null}
- -t 2.04612 -s 1 -d 11 -p cbr -e 210 -c 2 -i 8 -a 2 -x {10.1 1073741824.0 8 ------- null}
h -t 2.04612 -s 1 -d 11 -p cbr -e 210 -c 2 -i 8 -a 2 -x {10.1 1073741824.0 -1 ------- null}
r -t 2.04683 -s 0 -d 3 -p cbr -e 210 -c 2 -i 1 -a 2 -x {10.1 1073741824.0 1 ------- null}
r -t 2.04683 -s 0 -d 2 -p cbr -e 210 -c 2 -i 1 -a 2 -x {10.1 1073741824.0 1 ------- null}
r -t 2.04724 -s 1 -d 0 -p cbr -e 210 -c 2 -i 4 -a 2 -x {10.1 1073741824.0 4 ------- null}
+ -t 2.04724 -s 0 -d 3 -p cbr -e 210 -c 2 -i 4 -a 2 -x {10.1 1073741824.0 4 ------- null}
- -t 2.04724 -s 0 -d 3 -p cbr -e 210 -c 2 -i 4 -a 2 -x {10.1 1073741824.0 4 ------- null}