v 0.3 eval {set sim_annotation {0.29999999999999999 2 join-group 1073741824}}
v 0.3 eval {set sim_annotation {0.29999999999999999 3 join-group 1073741824}}
v 0.3 eval {set sim_annotation {0.29999999999999999 4 join-group 1073741824}}
v 0.3 eval {set sim_annotation {0.29999999999999999 5 join-group 1073741824}}
v 0.3 eval {set sim_annotation {0.29999999999999999 6 join-group 1073741824}}
+ 2 10 1 cbr 210 ------- 0 10.1 1073741824.0 0 0
- 2 10 1 cbr 210 ------- 0 10.1 1073741824.0 0 0
+ 2.00375 10 1 cbr 210 ------- 0 10.1 1073741824.0 1 1
- 2.00375 10 1 cbr 210 ------- 0 10.1 1073741824.0 1 1
+ 2.0075 10 1 cbr 210 ------- 0 10.1 1073741824.0 2 2
- 2.0075 10 1 cbr 210 ------- 0 10.1 1073741824.0 2 2
+ 2.01125 10 1 cbr 210 ------- 0 10.1 1073741824.0 3 3
- 2.01125 10 1 cbr 210 ------- 0 10.1 1073741824.0 3 3
+ 2.015 10 1 cbr 210 ------- 0 10.1 1073741824.0 4 4
- 2.015 10 1 cbr 210 ------- 0 10.1 1073741824.0 4 4
r 2.01612 10 1 cbr 210 ------- 0 10.1 1073741824.0 0 0
+ 2.01612 1 0 cbr 210 ------- 0 10.1 1073741824.0 0 0
- 2.01612 1 0 cbr 210 ------- 0 10.1 1073741824.0 0 0
+ 2.01612 1 7 cbr 210 ------- 0 10.1 1073741824.0 0 0
- 2.01612 1 7 cbr 210 ------- 0 10.1 1073741824.0 0 0
+ 2.01612 1 8 cbr 210 ------- 0 10.1 1073741824.0 0 0
- 2.01612 1 8 cbr 210 ------- 0 10.1 1073741824.0 0 0
+ 2.01612 1 9 cbr 210 ------- 0 10.1 1073741824.0 0 0
- 2.01612 1 9 cbr 210 ------- 0 10.1 1073741824.0 0 0
+ 2.01612 1 11 cbr 210 ------- 0 10.1 1073741824.0 0 0
- 2.01612 1 11 cbr 210 ------- 0 10.1 1073741824.0 0 0
+ 2.01875 10 1 cbr 210 ------- 0 10.1 1073741824.0 5 5
- 2.01875 10 1 cbr 210 ------- 0 10.1 1073741824.0 5 5
r 2.01987 10 1 cbr 210 ------- 0 10.1 1073741824.0 1 1
+ 2.01987 1 0 cbr 210 ------- 0 10.1 1073741824.0 1 1
- 2.01987 1 0 cbr 210 ------- 0 10.1 1073741824.0 1 1
+ 2.01987 1 7 cbr 210 ------- 0 10.1 1073741824.0 1 1
- 2.01987 1 7 cbr 210 ------- 0 10.1 1073741824.0 1 1
+ 2.01987 1 8 cbr 210 ------- 0 10.1 1073741824.0 1 1
- 2.01987 1 8 cbr 210 ------- 0 10.1 1073741824.0 1 1
+ 2.01987 1 9 cbr 210 ------- 0 10.1 1073741824.0 1 1
- 2.01987 1 9 cbr 210 ------- 0 10.1 1073741824.0 1 1
+ 2.01987 1 11 cbr 210 ------- 0 10.1 1073741824.0 1 1
- 2.01987 1 11 cbr 210 ------- 0 10.1 1073741824.0 1 1
+ 2.0225 10 1 cbr 210 ------- 0 10.1 1073741824.0 6 6
- 2.0225 10 1 cbr 210 ------- 0 10.1 1073741824.0 6 6
r 2.02362 10 1 cbr 210 ------- 0 10.1 1073741824.0 2 2
+ 2.02362 1 0 cbr 210 ------- 0 10.1 1073741824.0 2 2
- 2.02362 1 0 cbr 210 ------- 0 10.1 1073741824.0 2 2
+ 2.02362 1 7 cbr 210 ------- 0 10.1 1073741824.0 2 2
- 2.02362 1 7 cbr 210 ------- 0 10.1 1073741824.0 2 2
+ 2.02362 1 8 cbr 210 ------- 0 10.1 1073741824.0 2 2
- 2.02362 1 8 cbr 210 ------- 0 10.1 1073741824.0 2 2
+ 2.02362 1 9 cbr 210 ------- 0 10.1 1073741824.0 2 2
- 2.02362 1 9 cbr 210 ------- 0 10.1 1073741824.0 2 2
+ 2.02362 1 11 cbr 210 ------- 0 10.1 1073741824.0 2 2
- 2.02362 1 11 cbr 210 ------- 0 10.1 1073741824.0 2 2
+ 2.02625 10 1 cbr 210 ------- 0 10.1 1073741824.0 7 7
- 2.02625 10 1 cbr 210 ------- 0 10.1 1073741824.0 7 7
r 2.02737 10 1 cbr 210 ------- 0 10.1 1073741824.0 3 3
+ 2.02737 1 0 cbr 210 ------- 0 10.1 1073741824.0 3 3
- 2.02737 1 0 cbr 210 ------- 0 10.1 1073741824.0 3 3
+ 2.02737 1 7 cbr 210 ------- 0 10.1 1073741824.0 3 3
- 2.02737 1 7 cbr 210 ------- 0 10.1 1073741824.0 3 3
+ 2.02737 1 8 cbr 210 ------- 0 10.1 1073741824.0 3 3
- 2.02737 1 8 cbr 210 ------- 0 10.1 1073741824.0 3 3
+ 2.02737 1 9 cbr 210 ------- 0 10.1 1073741824.0 3 3
- 2.02737 1 9 cbr 210 ------- 0 10.1 1073741824.0 3 3
+ 2.02737 1 11 cbr 210 ------- 0 10.1 1073741824.0 3 3
- 2.02737 1 11 cbr 210 ------- 0 10.1 1073741824.0 3 3
+ 2.03 10 1 cbr 210 ------- 0 10.1 1073741824.0 8 8
- 2.03 10 1 cbr 210 ------- 0 10.1 1073741824.0 8 8
r 2.03112 10 1 cbr 210 ------- 0 10.1 1073741824.0 4 4
+ 2.03112 1 0 cbr 210 ------- 0 10.1 1073741824.0 4 4
- 2.03112 1 0 cbr 210 ------- 0 10.1 1073741824.0 4 4
+ 2.03112 1 7 cbr 210 ------- 0 10.1 1073741824.0 4 4
- 2.03112 1 7 cbr 210 ------- 0 10.1 1073741824.0 4 4
+ 2.03112 1 8 cbr 210 ------- 0 10.1 1073741824.0 4 4
- 2.03112 1 8 cbr 210 ------- 0 10.1 1073741824.0 4 4
+ 2.03112 1 9 cbr 210 ------- 0 10.1 1073741824.0 4 4
- 2.03112 1 9 cbr 210 ------- 0 10.1 1073741824.0 4 4
+ 2.03112 1 11 cbr 210 ------- 0 10.1 1073741824.0 4 4
- 2.03112 1 11 cbr 210 ------- 0 10.1 1073741824.0 4 4
r 2.03224 1 0 cbr 210 ------- 0 10.1 1073741824.0 0 0
+ 2.03224 0 3 cbr 210 ------- 0 10.1 1073741824.0 0 0
- 2.03224 0 3 cbr 210 ------- 0 10.1 1073741824.0 0 0
+ 2.03224 0 4 cbr 210 ------- 0 10.1 1073741824.0 0 0
- 2.03224 0 4 cbr 210 ------- 0 10.1 1073741824.0 0 0
+ 2.03224 0 5 cbr 210 ------- 0 10.1 1073741824.0 0 0
- 2.03224 0 5 cbr 210 ------- 0 10.1 1073741824.0 0 0
+ 2.03224 0 6 cbr 210 ------- 0 10.1 1073741824.0 0 0
- 2.03224 0 6 cbr 210 ------- 0 10.1 1073741824.0 0 0
+ 2.03224 0 2 cbr 210 ------- 0 10.1 1073741824.0 0 0
- 2.03224 0 2 cbr 210 ------- 0 10.1 1073741824.0 0 0
r 2.03224 1 7 cbr 210 ------- 0 10.1 1073741824.0 0 0
+ 2.03224 7 1 prune 80 ------- 30 7.0 1.0 -1 9
- 2.03224 7 1 prune 80 ------- 30 7.0 1.0 -1 9
r 2.03224 1 8 cbr 210 ------- 0 10.1 1073741824.0 0 0
+ 2.03224 8 1 prune 80 ------- 30 8.0 1.0 -1 10
- 2.03224 8 1 prune 80 ------- 30 8.0 1.0 -1 10
r 2.03224 1 9 cbr 210 ------- 0 10.1 1073741824.0 0 0
+ 2.03224 9 1 prune 80 ------- 30 9.0 1.0 -1 11
- 2.03224 9 1 prune 80 ------- 30 9.0 1.0 -1 11
r 2.03224 1 11 cbr 210 ------- 0 10.1 1073741824.0 0 0
+ 2.03224 11 1 prune 80 ------- 30 11.0 1.0 -1 12
- 2.03224 11 1 prune 80 ------- 30 11.0 1.0 -1 12
+ 2.03375 10 1 cbr 210 ------- 0 10.1 1073741824.0 9 13
- 2.03375 10 1 cbr 210 ------- 0 10.1 1073741824.0 9 13
r 2.03487 10 1 cbr 210 ------- 0 10.1 1073741824.0 5 5
+ 2.03487 1 0 cbr 210 ------- 0 10.1 1073741824.0 5 5
- 2.03487 1 0 cbr 210 ------- 0 10.1 1073741824.0 5 5
+ 2.03487 1 7 cbr 210 ------- 0 10.1 1073741824.0 5 5
- 2.03487 1 7 cbr 210 ------- 0 10.1 1073741824.0 5 5
+ 2.03487 1 8 cbr 210 ------- 0 10.1 1073741824.0 5 5
- 2.03487 1 8 cbr 210 ------- 0 10.1 1073741824.0 5 5
+ 2.03487 1 9 cbr 210 ------- 0 10.1 1073741824.0 5 5
- 2.03487 1 9 cbr 210 ------- 0 10.1 1073741824.0 5 5
+ 2.03487 1 11 cbr 210 ------- 0 10.1 1073741824.0 5 5
- 2.03487 1 11 cbr 210 ------- 0 10.1 1073741824.0 5 5
r 2.03599 1 0 cbr 210 ------- 0 10.1 1073741824.0 1 1
+ 2.03599 0 3 cbr 210 ------- 0 10.1 1073741824.0 1 1
- 2.03599 0 3 cbr 210 ------- 0 10.1 1073741824.0 1 1
+ 2.03599 0 4 cbr 210 ------- 0 10.1 1073741824.0 1 1
- 2.03599 0 4 cbr 210 ------- 0 10.1 1073741824.0 1 1
+ 2.03599 0 5 cbr 210 ------- 0 10.1 1073741824.0 1 1
- 2.03599 0 5 cbr 210 ------- 0 10.1 1073741824.0 1 1
+ 2.03599 0 6 cbr 210 ------- 0 10.1 1073741824.0 1 1
- 2.03599 0 6 cbr 210 ------- 0 10.1 1073741824.0 1 1
+ 2.03599 0 2 cbr 210 ------- 0 10.1 1073741824.0 1 1
- 2.03599 0 2 cbr 210 ------- 0 10.1 1073741824.0 1 1
r 2.03599 1 7 cbr 210 ------- 0 10.1 1073741824.0 1 1
+ 2.03599 7 1 prune 80 ------- 30 7.0 1.0 -1 14
- 2.03599 7 1 prune 80 ------- 30 7.0 1.0 -1 14
r 2.03599 1 8 cbr 210 ------- 0 10.1 1073741824.0 1 1
+ 2.03599 8 1 prune 80 ------- 30 8.0 1.0 -1 15
- 2.03599 8 1 prune 80 ------- 30 8.0 1.0 -1 15
r 2.03599 1 9 cbr 210 ------- 0 10.1 1073741824.0 1 1
+ 2.03599 9 1 prune 80 ------- 30 9.0 1.0 -1 16
- 2.03599 9 1 prune 80 ------- 30 9.0 1.0 -1 16
r 2.03599 1 11 cbr 210 ------- 0 10.1 1073741824.0 1 1
+ 2.03599 11 1 prune 80 ------- 30 11.0 1.0 -1 17
- 2.03599 11 1 prune 80 ------- 30 11.0 1.0 -1 17
+ 2.0375 10 1 cbr 210 ------- 0 10.1 1073741824.0 10 18
- 2.0375 10 1 cbr 210 ------- 0 10.1 1073741824.0 10 18
r 2.03862 10 1 cbr 210 ------- 0 10.1 1073741824.0 6 6
+ 2.03862 1 0 cbr 210 ------- 0 10.1 1073741824.0 6 6
- 2.03862 1 0 cbr 210 ------- 0 10.1 1073741824.0 6 6
+ 2.03862 1 7 cbr 210 ------- 0 10.1 1073741824.0 6 6
- 2.03862 1 7 cbr 210 ------- 0 10.1 1073741824.0 6 6
+ 2.03862 1 8 cbr 210 ------- 0 10.1 1073741824.0 6 6
- 2.03862 1 8 cbr 210 ------- 0 10.1 1073741824.0 6 6
+ 2.03862 1 9 cbr 210 ------- 0 10.1 1073741824.0 6 6
- 2.03862 1 9 cbr 210 ------- 0 10.1 1073741824.0 6 6
+ 2.03862 1 11 cbr 210 ------- 0 10.1 1073741824.0 6 6
- 2.03862 1 11 cbr 210 ------- 0 10.1 1073741824.0 6 6
r 2.03974 1 0 cbr 210 ------- 0 10.1 1073741824.0 2 2
+ 2.03974 0 3 cbr 210 ------- 0 10.1 1073741824.0 2 2
- 2.03974 0 3 cbr 210 ------- 0 10.1 1073741824.0 2 2
+ 2.03974 0 4 cbr 210 ------- 0 10.1 1073741824.0 2 2
- 2.03974 0 4 cbr 210 ------- 0 10.1 1073741824.0 2 2
+ 2.03974 0 5 cbr 210 ------- 0 10.1 1073741824.0 2 2
- 2.03974 0 5 cbr 210 ------- 0 10.1 1073741824.0 2 2
+ 2.03974 0 6 cbr 210 ------- 0 10.1 1073741824.0 2 2
- 2.03974 0 6 cbr 210 ------- 0 10.1 1073741824.0 2 2
+ 2.03974 0 2 cbr 210 ------- 0 10.1 1073741824.0 2 2
- 2.03974 0 2 cbr 210 ------- 0 10.1 1073741824.0 2 2
r 2.03974 1 7 cbr 210 ------- 0 10.1 1073741824.0 2 2
+ 2.03974 7 1 prune 80 ------- 30 7.0 1.0 -1 19
- 2.03974 7 1 prune 80 ------- 30 7.0 1.0 -1 19
r 2.03974 1 8 cbr 210 ------- 0 10.1 1073741824.0 2 2
+ 2.03974 8 1 prune 80 ------- 30 8.0 1.0 -1 20
- 2.03974 8 1 prune 80 ------- 30 8.0 1.0 -1 20
r 2.03974 1 9 cbr 210 ------- 0 10.1 1073741824.0 2 2
+ 2.03974 9 1 prune 80 ------- 30 9.0 1.0 -1 21
- 2.03974 9 1 prune 80 ------- 30 9.0 1.0 -1 21
r 2.03974 1 11 cbr 210 ------- 0 10.1 1073741824.0 2 2
+ 2.03974 11 1 prune 80 ------- 30 11.0 1.0 -1 22
- 2.03974 11 1 prune 80 ------- 30 11.0 1.0 -1 22
+ 2.04125 10 1 cbr 210 ------- 0 10.1 1073741824.0 11 23
- 2.04125 10 1 cbr 210 ------- 0 10.1 1073741824.0 11 23
r 2.04237 10 1 cbr 210 ------- 0 10.1 1073741824.0 7 7
+ 2.04237 1 0 cbr 210 ------- 0 10.1 1073741824.0 7 7
- 2.04237 1 0 cbr 210 ------- 0 10.1 1073741824.0 7 7
+ 2.04237 1 7 cbr 210 ------- 0 10.1 1073741824.0 7 7
- 2.04237 1 7 cbr 210 ------- 0 10.1 1073741824.0 7 7
+ 2.04237 1 8 cbr 210 ------- 0 10.1 1073741824.0 7 7
- 2.04237 1 8 cbr 210 ------- 0 10.1 1073741824.0 7 7
+ 2.04237 1 9 cbr 210 ------- 0 10.1 1073741824.0 7 7
- 2.04237 1 9 cbr 210 ------- 0 10.1 1073741824.0 7 7
+ 2.04237 1 11 cbr 210 ------- 0 10.1 1073741824.0 7 7
- 2.04237 1 11 cbr 210 ------- 0 10.1 1073741824.0 7 7
r 2.04308 0 3 cbr 210 ------- 0 10.1 1073741824.0 0 0
r 2.04308 0 2 cbr 210 ------- 0 10.1 1073741824.0 0 0
r 2.04349 1 0 cbr 210 ------- 0 10.1 1073741824.0 3 3
+ 2.04349 0 3 cbr 210 ------- 0 10.1 1073741824.0 3 3
- 2.04349 0 3 cbr 210 ------- 0 10.1 1073741824.0 3 3
+ 2.04349 0 4 cbr 210 ------- 0 10.1 1073741824.0 3 3
- 2.04349 0 4 cbr 210 ------- 0 10.1 1073741824.0 3 3
+ 2.04349 0 5 cbr 210 ------- 0 10.1 1073741824.0 3 3
- 2.04349 0 5 cbr 210 ------- 0 10.1 1073741824.0 3 3
+ 2.04349 0 6 cbr 210 ------- 0 10.1 1073741824.0 3 3
- 2.04349 0 6 cbr 210 ------- 0 10.1 1073741824.0 3 3
+ 2.04349 0 2 cbr 210 ------- 0 10.1 1073741824.0 3 3
- 2.04349 0 2 cbr 210 ------- 0 10.1 1073741824.0 3 3
r 2.04349 1 7 cbr 210 ------- 0 10.1 1073741824.0 3 3
+ 2.04349 7 1 prune 80 ------- 30 7.0 1.0 -1 24
- 2.04349 7 1 prune 80 ------- 30 7.0 1.0 -1 24
r 2.04349 1 8 cbr 210 ------- 0 10.1 1073741824.0 3 3
+ 2.04349 8 1 prune 80 ------- 30 8.0 1.0 -1 25
- 2.04349 8 1 prune 80 ------- 30 8.0 1.0 -1 25
r 2.04349 1 9 cbr 210 ------- 0 10.1 1073741824.0 3 3
+ 2.04349 9 1 prune 80 ------- 30 9.0 1.0 -1 26
- 2.04349 9 1 prune 80 ------- 30 9.0 1.0 -1 26
r 2.04349 1 11 cbr 210 ------- 0 10.1 1073741824.0 3 3
+ 2.04349 11 1 prune 80 ------- 30 11.0 1.0 -1 27
- 2.04349 11 1 prune 80 ------- 30 11.0 1.0 -1 27
+ 2.045 10 1 cbr 210 ------- 0 10.1 1073741824.0 12 28
- 2.045 10 1 cbr 210 ------- 0 10.1 1073741824.0 12 28
r 2.04612 10 1 cbr 210 ------- 0 10.1 1073741824.0 8 8
+ 2.04612 1 0 cbr 210 ------- 0 10.1 1073741824.0 8 8
- 2.04612 1 0 cbr 210 ------- 0 10.1 1073741824.0 8 8
+ 2.04612 1 7 cbr 210 ------- 0 10.1 1073741824.0 8 8
- 2.04612 1 7 cbr 210 ------- 0 10.1 1073741824.0 8 8
+ 2.04612 1 8 cbr 210 ------- 0 10.1 1073741824.0 8 8
- 2.04612 1 8 cbr 210 ------- 0 10.1 1073741824.0 8 8
+ 2.04612 1 9 cbr 210 ------- 0 10.1 1073741824.0 8 8
- 2.04612 1 9 cbr 210 ------- 0 10.1 1073741824.0 8 8
+ 2.04612 1 11 cbr 210 ------- 0 10.1 1073741824.0 8 8
- 2.04612 1 11 cbr 210 ------- 0 10.1 1073741824.0 8 8
r 2.04683 0 3 cbr 210 ------- 0 10.1 1073741824.0 1 1
r 2.04683 0 2 cbr 210 ------- 0 10.1 1073741824.0 1 1
r 2.04724 1 0 cbr 210 ------- 0 10.1 1073741824.0 4 4
+ 2.04724 0 3 cbr 210 ------- 0 10.1 1073741824.0 4 4
- 2.04724 0 3 cbr 210 ------- 0 10.1 1073741824.0 4 4
+ 2.04724 0 4 cbr 210 ------- 0 10.1 1073741824.0 4 4
- 2.04724 0 4 cbr 210 ------- 0 10.1 1073741824.0 4 4
+ 2.04724 0 5 cbr 210 ------- 0 10.1 1073741824.0 4 4
- 2.04724 0 5 cbr 210 ------- 0 10.1 1073741824.0 4 4
+ 2.04724 0 6 cbr 210 ------- 0 10.1 1073741824.0 4 4
- 2.04724 0 6 cbr 210 ------- 0 10.1 1073741824.0 4 4
+ 2.04724 0 2 cbr 210 ------- 0 10.1 1073741824.0 4 4
- 2.04724 0 2 cbr 210 ------- 0 10.1 1073741824.0 4 4
r 2.04724 1 7 cbr 210 ------- 0 10.1 1073741824.0 4 4
+ 2.04724 7 1 prune 80 ------- 30 7.0 1.0 -1 29
- 2.04724 7 1 prune 80 ------- 30 7.0 1.0 -1 29
r 2.04724 1 8 cbr 210 ------- 0 10.1 1073741824.0 4 4
+ 2.04724 8 1 prune 80 ------- 30 8.0 1.0 -1 30
- 2.04724 8 1 prune 80 ------- 30 8.0 1.0 -1 30
r 2.04724 1 9 cbr 210 ------- 0 10.1 1073741824.0 4 4
+ 2.04724 9 1 prune 80 ------- 30 9.0 1.0 -1 31
- 2.04724 9 1 prune 80 ------- 30 9.0 1.0 -1 31
r 2.04724 1 11 cbr 210 ------- 0 10.1 1073741824.0 4 4
+ 2.04724 11 1 prune 80 ------- 30 11.0 1.0 -1 32
- 2.04724 11 1 prune 80 ------- 30 11.0 1.0 -1 32
r 2.047667 7 1 prune 80 ------- 30 7.0 1.0 -1 9
r 2.047667 8 1 prune 80 ------- 30 8.0 1.0 -1 10
r 2.047667 9 1 prune 80 ------- 30 9.0 1.0 -1 11
r 2.047667 11 1 prune 80 ------- 30 11.0 1.0 -1 12
r 2.04836 0 5 cbr 210 ------- 0 10.1 1073741824.0 0 0
r 2.04836 0 6 cbr 210 ------- 0 10.1 1073741824.0 0 0
+ 2.04875 10 1 cbr 210 ------- 0 10.1 1073741824.0 13 33
- 2.04875 10 1 cbr 210 ------- 0 10.1 1073741824.0 13 33
r 2.04987 10 1 cbr 210 ------- 0 10.1 1073741824.0 9 13
+ 2.04987 1 0 cbr 210 ------- 0 10.1 1073741824.0 9 13
- 2.04987 1 0 cbr 210 ------- 0 10.1 1073741824.0 9 13
r 2.05058 0 3 cbr 210 ------- 0 10.1 1073741824.0 2 2
r 2.05058 0 2 cbr 210 ------- 0 10.1 1073741824.0 2 2
r 2.05099 1 0 cbr 210 ------- 0 10.1 1073741824.0 5 5
+ 2.05099 0 3 cbr 210 ------- 0 10.1 1073741824.0 5 5
- 2.05099 0 3 cbr 210 ------- 0 10.1 1073741824.0 5 5
+ 2.05099 0 4 cbr 210 ------- 0 10.1 1073741824.0 5 5
- 2.05099 0 4 cbr 210 ------- 0 10.1 1073741824.0 5 5
+ 2.05099 0 5 cbr 210 ------- 0 10.1 1073741824.0 5 5
- 2.05099 0 5 cbr 210 ------- 0 10.1 1073741824.0 5 5
+ 2.05099 0 6 cbr 210 ------- 0 10.1 1073741824.0 5 5
- 2.05099 0 6 cbr 210 ------- 0 10.1 1073741824.0 5 5
+ 2.05099 0 2 cbr 210 ------- 0 10.1 1073741824.0 5 5
- 2.05099 0 2 cbr 210 ------- 0 10.1 1073741824.0 5 5
r 2.05099 1 7 cbr 210 ------- 0 10.1 1073741824.0 5 5
+ 2.05099 7 1 prune 80 ------- 30 7.0 1.0 -1 34
- 2.05099 7 1 prune 80 ------- 30 7.0 1.0 -1 34
r 2.05099 1 8 cbr 210 ------- 0 10.1 1073741824.0 5 5
+ 2.05099 8 1 prune 80 ------- 30 8.0 1.0 -1 35
- 2.05099 8 1 prune 80 ------- 30 8.0 1.0 -1 35
r 2.05099 1 9 cbr 210 ------- 0 10.1 1073741824.0 5 5
+ 2.05099 9 1 prune 80 ------- 30 9.0 1.0 -1 36
- 2.05099 9 1 prune 80 ------- 30 9.0 1.0 -1 36
r 2.05099 1 11 cbr 210 ------- 0 10.1 1073741824.0 5 5
+ 2.05099 11 1 prune 80 ------- 30 11.0 1.0 -1 37
- 2.05099 11 1 prune 80 ------- 30 11.0 1.0 -1 37
r 2.051417 7 1 prune 80 ------- 30 7.0 1.0 -1 14
r 2.051417 8 1 prune 80 ------- 30 8.0 1.0 -1 15
r 2.051417 9 1 prune 80 ------- 30 9.0 1.0 -1 16
r 2.051417 11 1 prune 80 ------- 30 11.0 1.0 -1 17
r 2.05211 0 5 cbr 210 ------- 0 10.1 1073741824.0 1 1
r 2.05211 0 6 cbr 210 ------- 0 10.1 1073741824.0 1 1
+ 2.0525 10 1 cbr 210 ------- 0 10.1 1073741824.0 14 38
- 2.0525 10 1 cbr 210 ------- 0 10.1 1073741824.0 14 38
r 2.053228 0 4 cbr 210 ------- 0 10.1 1073741824.0 0 0
r 2.05362 10 1 cbr 210 ------- 0 10.1 1073741824.0 10 18
+ 2.05362 1 0 cbr 210 ------- 0 10.1 1073741824.0 10 18
- 2.05362 1 0 cbr 210 ------- 0 10.1 1073741824.0 10 18
r 2.05433 0 3 cbr 210 ------- 0 10.1 1073741824.0 3 3
r 2.05433 0 2 cbr 210 ------- 0 10.1 1073741824.0 3 3
r 2.05474 1 0 cbr 210 ------- 0 10.1 1073741824.0 6 6
+ 2.05474 0 3 cbr 210 ------- 0 10.1 1073741824.0 6 6
- 2.05474 0 3 cbr 210 ------- 0 10.1 1073741824.0 6 6
+ 2.05474 0 4 cbr 210 ------- 0 10.1 1073741824.0 6 6
- 2.05474 0 4 cbr 210 ------- 0 10.1 1073741824.0 6 6
+ 2.05474 0 5 cbr 210 ------- 0 10.1 1073741824.0 6 6
- 2.05474 0 5 cbr 210 ------- 0 10.1 1073741824.0 6 6
+ 2.05474 0 6 cbr 210 ------- 0 10.1 1073741824.0 6 6
- 2.05474 0 6 cbr 210 ------- 0 10.1 1073741824.0 6 6
+ 2.05474 0 2 cbr 210 ------- 0 10.1 1073741824.0 6 6
- 2.05474 0 2 cbr 210 ------- 0 10.1 1073741824.0 6 6
r 2.05474 1 7 cbr 210 ------- 0 10.1 1073741824.0 6 6
+ 2.05474 7 1 prune 80 ------- 30 7.0 1.0 -1 39
- 2.05474 7 1 prune 80 ------- 30 7.0 1.0 -1 39
r 2.05474 1 8 cbr 210 ------- 0 10.1 1073741824.0 6 6
+ 2.05474 8 1 prune 80 ------- 30 8.0 1.0 -1 40
- 2.05474 8 1 prune 80 ------- 30 8.0 1.0 -1 40
r 2.05474 1 9 cbr 210 ------- 0 10.1 1073741824.0 6 6
+ 2.05474 9 1 prune 80 ------- 30 9.0 1.0 -1 41
- 2.05474 9 1 prune 80 ------- 30 9.0 1.0 -1 41
r 2.05474 1 11 cbr 210 ------- 0 10.1 1073741824.0 6 6
+ 2.05474 11 1 prune 80 ------- 30 11.0 1.0 -1 42
- 2.05474 11 1 prune 80 ------- 30 11.0 1.0 -1 42
r 2.055167 7 1 prune 80 ------- 30 7.0 1.0 -1 19
r 2.055167 8 1 prune 80 ------- 30 8.0 1.0 -1 20
r 2.055167 9 1 prune 80 ------- 30 9.0 1.0 -1 21
r 2.055167 11 1 prune 80 ------- 30 11.0 1.0 -1 22
r 2.05586 0 5 cbr 210 ------- 0 10.1 1073741824.0 2 2
r 2.05586 0 6 cbr 210 ------- 0 10.1 1073741824.0 2 2
+ 2.05625 10 1 cbr 210 ------- 0 10.1 1073741824.0 15 43
- 2.05625 10 1 cbr 210 ------- 0 10.1 1073741824.0 15 43
r 2.056978 0 4 cbr 210 ------- 0 10.1 1073741824.0 1 1
r 2.05737 10 1 cbr 210 ------- 0 10.1 1073741824.0 11 23
+ 2.05737 1 0 cbr 210 ------- 0 10.1 1073741824.0 11 23
- 2.05737 1 0 cbr 210 ------- 0 10.1 1073741824.0 11 23
r 2.05808 0 3 cbr 210 ------- 0 10.1 1073741824.0 4 4
r 2.05808 0 2 cbr 210 ------- 0 10.1 1073741824.0 4 4
r 2.05849 1 0 cbr 210 ------- 0 10.1 1073741824.0 7 7
+ 2.05849 0 3 cbr 210 ------- 0 10.1 1073741824.0 7 7
- 2.05849 0 3 cbr 210 ------- 0 10.1 1073741824.0 7 7
+ 2.05849 0 4 cbr 210 ------- 0 10.1 1073741824.0 7 7
- 2.05849 0 4 cbr 210 ------- 0 10.1 1073741824.0 7 7
+ 2.05849 0 5 cbr 210 ------- 0 10.1 1073741824.0 7 7
- 2.05849 0 5 cbr 210 ------- 0 10.1 1073741824.0 7 7
+ 2.05849 0 6 cbr 210 ------- 0 10.1 1073741824.0 7 7
- 2.05849 0 6 cbr 210 ------- 0 10.1 1073741824.0 7 7
+ 2.05849 0 2 cbr 210 ------- 0 10.1 1073741824.0 7 7
- 2.05849 0 2 cbr 210 ------- 0 10.1 1073741824.0 7 7
r 2.05849 1 7 cbr 210 ------- 0 10.1 1073741824.0 7 7
+ 2.05849 7 1 prune 80 ------- 30 7.0 1.0 -1 44
- 2.05849 7 1 prune 80 ------- 30 7.0 1.0 -1 44
r 2.05849 1 8 cbr 210 ------- 0 10.1 1073741824.0 7 7
+ 2.05849 8 1 prune 80 ------- 30 8.0 1.0 -1 45
- 2.05849 8 1 prune 80 ------- 30 8.0 1.0 -1 45
r 2.05849 1 9 cbr 210 ------- 0 10.1 1073741824.0 7 7
+ 2.05849 9 1 prune 80 ------- 30 9.0 1.0 -1 46
- 2.05849 9 1 prune 80 ------- 30 9.0 1.0 -1 46
r 2.05849 1 11 cbr 210 ------- 0 10.1 1073741824.0 7 7
+ 2.05849 11 1 prune 80 ------- 30 11.0 1.0 -1 47
- 2.05849 11 1 prune 80 ------- 30 11.0 1.0 -1 47
r 2.058917 7 1 prune 80 ------- 30 7.0 1.0 -1 24
r 2.058917 8 1 prune 80 ------- 30 8.0 1.0 -1 25
r 2.058917 9 1 prune 80 ------- 30 9.0 1.0 -1 26
r 2.058917 11 1 prune 80 ------- 30 11.0 1.0 -1 27
r 2.05961 0 5 cbr 210 ------- 0 10.1 1073741824.0 3 3
r 2.05961 0 6 cbr 210 ------- 0 10.1 1073741824.0 3 3
+ 2.06 10 1 cbr 210 ------- 0 10.1 1073741824.0 16 48
- 2.06 10 1 cbr 210 ------- 0 10.1 1073741824.0 16 48
r 2.060728 0 4 cbr 210 ------- 0 10.1 1073741824.0 2 2
r 2.06112 10 1 cbr 210 ------- 0 10.1 1073741824.0 12 28
+ 2.06112 1 0 cbr 210 ------- 0 10.1 1073741824.0 12 28
- 2.06112 1 0 cbr 210 ------- 0 10.1 1073741824.0 12 28
r 2.06183 0 3 cbr 210 ------- 0 10.1 1073741824.0 5 5
r 2.06183 0 2 cbr 210 ------- 0 10.1 1073741824.0 5 5
r 2.06224 1 0 cbr 210 ------- 0 10.1 1073741824.0 8 8
+ 2.06224 0 3 cbr 210 ------- 0 10.1 1073741824.0 8 8
- 2.06224 0 3 cbr 210 ------- 0 10.1 1073741824.0 8 8
+ 2.06224 0 4 cbr 210 ------- 0 10.1 1073741824.0 8 8
- 2.06224 0 4 cbr 210 ------- 0 10.1 1073741824.0 8 8
+ 2.06224 0 5 cbr 210 ------- 0 10.1 1073741824.0 8 8
- 2.06224 0 5 cbr 210 ------- 0 10.1 1073741824.0 8 8
+ 2.06224 0 6 cbr 210 ------- 0 10.1 1073741824.0 8 8
- 2.06224 0 6 cbr 210 ------- 0 10.1 1073741824.0 8 8
+ 2.06224 0 2 cbr 210 ------- 0 10.1 1073741824.0 8 8
- 2.06224 0 2 cbr 210 ------- 0 10.1 1073741824.0 8 8
r 2.06224 1 7 cbr 210 ------- 0 10.1 1073741824.0 8 8
+ 2.06224 7 1 prune 80 ------- 30 7.0 1.0 -1 49
- 2.06224 7 1 prune 80 ------- 30 7.0 1.0 -1 49
r 2.06224 1 8 cbr 210 ------- 0 10.1 1073741824.0 8 8
+ 2.06224 8 1 prune 80 ------- 30 8.0 1.0 -1 50
- 2.06224 8 1 prune 80 ------- 30 8.0 1.0 -1 50
r 2.06224 1 9 cbr 210 ------- 0 10.1 1073741824.0 8 8
+ 2.06224 9 1 prune 80 ------- 30 9.0 1.0 -1 51
- 2.06224 9 1 prune 80 ------- 30 9.0 1.0 -1 51
r 2.06224 1 11 cbr 210 ------- 0 10.1 1073741824.0 8 8
+ 2.06224 11 1 prune 80 ------- 30 11.0 1.0 -1 52
- 2.06224 11 1 prune 80 ------- 30 11.0 1.0 -1 52
r 2.062667 7 1 prune 80 ------- 30 7.0 1.0 -1 29
r 2.062667 8 1 prune 80 ------- 30 8.0 1.0 -1 30
r 2.062667 9 1 prune 80 ------- 30 9.0 1.0 -1 31
r 2.062667 11 1 prune 80 ------- 30 11.0 1.0 -1 32
r 2.06336 0 5 cbr 210 ------- 0 10.1 1073741824.0 4 4
r 2.06336 0 6 cbr 210 ------- 0 10.1 1073741824.0 4 4
+ 2.06375 10 1 cbr 210 ------- 0 10.1 1073741824.0 17 53
- 2.06375 10 1 cbr 210 ------- 0 10.1 1073741824.0 17 53
r 2.064478 0 4 cbr 210 ------- 0 10.1 1073741824.0 3 3
r 2.06487 10 1 cbr 210 ------- 0 10.1 1073741824.0 13 33
+ 2.06487 1 0 cbr 210 ------- 0 10.1 1073741824.0 13 33
- 2.06487 1 0 cbr 210 ------- 0 10.1 1073741824.0 13 33
r 2.06558 0 3 cbr 210 ------- 0 10.1 1073741824.0 6 6
r 2.06558 0 2 cbr 210 ------- 0 10.1 1073741824.0 6 6
r 2.06599 1 0 cbr 210 ------- 0 10.1 1073741824.0 9 13
+ 2.06599 0 3 cbr 210 ------- 0 10.1 1073741824.0 9 13
- 2.06599 0 3 cbr 210 ------- 0 10.1 1073741824.0 9 13
+ 2.06599 0 4 cbr 210 ------- 0 10.1 1073741824.0 9 13
- 2.06599 0 4 cbr 210 ------- 0 10.1 1073741824.0 9 13
+ 2.06599 0 5 cbr 210 ------- 0 10.1 1073741824.0 9 13
- 2.06599 0 5 cbr 210 ------- 0 10.1 1073741824.0 9 13
+ 2.06599 0 6 cbr 210 ------- 0 10.1 1073741824.0 9 13
- 2.06599 0 6 cbr 210 ------- 0 10.1 1073741824.0 9 13
+ 2.06599 0 2 cbr 210 ------- 0 10.1 1073741824.0 9 13
- 2.06599 0 2 cbr 210 ------- 0 10.1 1073741824.0 9 13
r 2.066417 7 1 prune 80 ------- 30 7.0 1.0 -1 34
r 2.066417 8 1 prune 80 ------- 30 8.0 1.0 -1 35
r 2.066417 9 1 prune 80 ------- 30 9.0 1.0 -1 36
r 2.066417 11 1 prune 80 ------- 30 11.0 1.0 -1 37
r 2.06711 0 5 cbr 210 ------- 0 10.1 1073741824.0 5 5
r 2.06711 0 6 cbr 210 ------- 0 10.1 1073741824.0 5 5
+ 2.0675 10 1 cbr 210 ------- 0 10.1 1073741824.0 18 54
- 2.0675 10 1 cbr 210 ------- 0 10.1 1073741824.0 18 54
r 2.068228 0 4 cbr 210 ------- 0 10.1 1073741824.0 4 4
r 2.06862 10 1 cbr 210 ------- 0 10.1 1073741824.0 14 38
+ 2.06862 1 0 cbr 210 ------- 0 10.1 1073741824.0 14 38
- 2.06862 1 0 cbr 210 ------- 0 10.1 1073741824.0 14 38
r 2.06933 0 3 cbr 210 ------- 0 10.1 1073741824.0 7 7
r 2.06933 0 2 cbr 210 ------- 0 10.1 1073741824.0 7 7
r 2.06974 1 0 cbr 210 ------- 0 10.1 1073741824.0 10 18
+ 2.06974 0 3 cbr 210 ------- 0 10.1 1073741824.0 10 18
- 2.06974 0 3 cbr 210 ------- 0 10.1 1073741824.0 10 18
+ 2.06974 0 4 cbr 210 ------- 0 10.1 1073741824.0 10 18
- 2.06974 0 4 cbr 210 ------- 0 10.1 1073741824.0 10 18
+ 2.06974 0 5 cbr 210 ------- 0 10.1 1073741824.0 10 18
- 2.06974 0 5 cbr 210 ------- 0 10.1 1073741824.0 10 18
+ 2.06974 0 6 cbr 210 ------- 0 10.1 1073741824.0 10 18
- 2.06974 0 6 cbr 210 ------- 0 10.1 1073741824.0 10 18
+ 2.06974 0 2 cbr 210 ------- 0 10.1 1073741824.0 10 18
- 2.06974 0 2 cbr 210 ------- 0 10.1 1073741824.0 10 18
r 2.070167 7 1 prune 80 ------- 30 7.0 1.0 -1 39
r 2.070167 8 1 prune 80 ------- 30 8.0 1.0 -1 40
r 2.070167 9 1 prune 80 ------- 30 9.0 1.0 -1 41
r 2.070167 11 1 prune 80 ------- 30 11.0 1.0 -1 42
r 2.07086 0 5 cbr 210 ------- 0 10.1 1073741824.0 6 6
r 2.07086 0 6 cbr 210 ------- 0 10.1 1073741824.0 6 6
+ 2.07125 10 1 cbr 210 ------- 0 10.1 1073741824.0 19 55
- 2.07125 10 1 cbr 210 ------- 0 10.1 1073741824.0 19 55
r 2.071978 0 4 cbr 210 ------- 0 10.1 1073741824.0 5 5
r 2.07237 10 1 cbr 210 ------- 0 10.1 1073741824.0 15 43
+ 2.07237 1 0 cbr 210 ------- 0 10.1 1073741824.0 15 43
- 2.07237 1 0 cbr 210 ------- 0 10.1 1073741824.0 15 43
r 2.07308 0 3 cbr 210 ------- 0 10.1 1073741824.0 8 8
r 2.07308 0 2 cbr 210 ------- 0 10.1 1073741824.0 8 8
r 2.07349 1 0 cbr 210 ------- 0 10.1 1073741824.0 11 23
+ 2.07349 0 3 cbr 210 ------- 0 10.1 1073741824.0 11 23
- 2.07349 0 3 cbr 210 ------- 0 10.1 1073741824.0 11 23
+ 2.07349 0 4 cbr 210 ------- 0 10.1 1073741824.0 11 23
- 2.07349 0 4 cbr 210 ------- 0 10.1 1073741824.0 11 23
+ 2.07349 0 5 cbr 210 ------- 0 10.1 1073741824.0 11 23
- 2.07349 0 5 cbr 210 ------- 0 10.1 1073741824.0 11 23
+ 2.07349 0 6 cbr 210 ------- 0 10.1 1073741824.0 11 23
- 2.07349 0 6 cbr 210 ------- 0 10.1 1073741824.0 11 23
+ 2.07349 0 2 cbr 210 ------- 0 10.1 1073741824.0 11 23
- 2.07349 0 2 cbr 210 ------- 0 10.1 1073741824.0 11 23
r 2.073917 7 1 prune 80 ------- 30 7.0 1.0 -1 44
r 2.073917 8 1 prune 80 ------- 30 8.0 1.0 -1 45
r 2.073917 9 1 prune 80 ------- 30 9.0 1.0 -1 46
r 2.073917 11 1 prune 80 ------- 30 11.0 1.0 -1 47
r 2.07461 0 5 cbr 210 ------- 0 10.1 1073741824.0 7 7
r 2.07461 0 6 cbr 210 ------- 0 10.1 1073741824.0 7 7
+ 2.075 10 1 cbr 210 ------- 0 10.1 1073741824.0 20 56
- 2.075 10 1 cbr 210 ------- 0 10.1 1073741824.0 20 56
r 2.075728 0 4 cbr 210 ------- 0 10.1 1073741824.0 6 6
r 2.07612 10 1 cbr 210 ------- 0 10.1 1073741824.0 16 48
+ 2.07612 1 0 cbr 210 ------- 0 10.1 1073741824.0 16 48
- 2.07612 1 0 cbr 210 ------- 0 10.1 1073741824.0 16 48
r 2.07683 0 3 cbr 210 ------- 0 10.1 1073741824.0 9 13
r 2.07683 0 2 cbr 210 ------- 0 10.1 1073741824.0 9 13
r 2.07724 1 0 cbr 210 ------- 0 10.1 1073741824.0 12 28
+ 2.07724 0 3 cbr 210 ------- 0 10.1 1073741824.0 12 28
- 2.07724 0 3 cbr 210 ------- 0 10.1 1073741824.0 12 28
+ 2.07724 0 4 cbr 210 ------- 0 10.1 1073741824.0 12 28
- 2.07724 0 4 cbr 210 ------- 0 10.1 1073741824.0 12 28
+ 2.07724 0 5 cbr 210 ------- 0 10.1 1073741824.0 12 28
- 2.07724 0 5 cbr 210 ------- 0 10.1 1073741824.0 12 28
+ 2.07724 0 6 cbr 210 ------- 0 10.1 1073741824.0 12 28
- 2.07724 0 6 cbr 210 ------- 0 10.1 1073741824.0 12 28
+ 2.07724 0 2 cbr 210 ------- 0 10.1 1073741824.0 12 28
- 2.07724 0 2 cbr 210 ------- 0 10.1 1073741824.0 12 28
r 2.077667 7 1 prune 80 ------- 30 7.0 1.0 -1 49
r 2.077667 8 1 prune 80 ------- 30 8.0 1.0 -1 50
r 2.077667 9 1 prune 80 ------- 30 9.0 1.0 -1 51
r 2.077667 11 1 prune 80 ------- 30 11.0 1.0 -1 52
r 2.07836 0 5 cbr 210 ------- 0 10.1 1073741824.0 8 8
r 2.07836 0 6 cbr 210 ------- 0 10.1 1073741824.0 8 8
+ 2.07875 10 1 cbr 210 ------- 0 10.1 1073741824.0 21 57
- 2.07875 10 1 cbr 210 ------- 0 10.1 1073741824.0 21 57
r 2.079478 0 4 cbr 210 ------- 0 10.1 1073741824.0 7 7
r 2.07987 10 1 cbr 210 ------- 0 10.1 1073741824.0 17 53
+ 2.07987 1 0 cbr 210 ------- 0 10.1 1073741824.0 17 53
- 2.07987 1 0 cbr 210 ------- 0 10.1 1073741824.0 17 53
r 2.08058 0 3 cbr 210 ------- 0 10.1 1073741824.0 10 18
r 2.08058 0 2 cbr 210 ------- 0 10.1 1073741824.0 10 18
r 2.08099 1 0 cbr 210 ------- 0 10.1 1073741824.0 13 33
+ 2.08099 0 3 cbr 210 ------- 0 10.1 1073741824.0 13 33
- 2.08099 0 3 cbr 210 ------- 0 10.1 1073741824.0 13 33
+ 2.08099 0 4 cbr 210 ------- 0 10.1 1073741824.0 13 33
- 2.08099 0 4 cbr 210 ------- 0 10.1 1073741824.0 13 33
+ 2.08099 0 5 cbr 210 ------- 0 10.1 1073741824.0 13 33
- 2.08099 0 5 cbr 210 ------- 0 10.1 1073741824.0 13 33
+ 2.08099 0 6 cbr 210 ------- 0 10.1 1073741824.0 13 33
- 2.08099 0 6 cbr 210 ------- 0 10.1 1073741824.0 13 33
+ 2.08099 0 2 cbr 210 ------- 0 10.1 1073741824.0 13 33
- 2.08099 0 2 cbr 210 ------- 0 10.1 1073741824.0 13 33
r 2.08211 0 5 cbr 210 ------- 0 10.1 1073741824.0 9 13
r 2.08211 0 6 cbr 210 ------- 0 10.1 1073741824.0 9 13
+ 2.0825 10 1 cbr 210 ------- 0 10.1 1073741824.0 22 58
- 2.0825 10 1 cbr 210 ------- 0 10.1 1073741824.0 22 58
r 2.083228 0 4 cbr 210 ------- 0 10.1 1073741824.0 8 8
r 2.08362 10 1 cbr 210 ------- 0 10.1 1073741824.0 18 54
+ 2.08362 1 0 cbr 210 ------- 0 10.1 1073741824.0 18 54
- 2.08362 1 0 cbr 210 ------- 0 10.1 1073741824.0 18 54
r 2.08433 0 3 cbr 210 ------- 0 10.1 1073741824.0 11 23
r 2.08433 0 2 cbr 210 ------- 0 10.1 1073741824.0 11 23
r 2.08474 1 0 cbr 210 ------- 0 10.1 1073741824.0 14 38
+ 2.08474 0 3 cbr 210 ------- 0 10.1 1073741824.0 14 38
- 2.08474 0 3 cbr 210 ------- 0 10.1 1073741824.0 14 38
+ 2.08474 0 4 cbr 210 ------- 0 10.1 1073741824.0 14 38
- 2.08474 0 4 cbr 210 ------- 0 10.1 1073741824.0 14 38
+ 2.08474 0 5 cbr 210 ------- 0 10.1 1073741824.0 14 38
- 2.08474 0 5 cbr 210 ------- 0 10.1 1073741824.0 14 38
+ 2.08474 0 6 cbr 210 ------- 0 10.1 1073741824.0 14 38
- 2.08474 0 6 cbr 210 ------- 0 10.1 1073741824.0 14 38
+ 2.08474 0 2 cbr 210 ------- 0 10.1 1073741824.0 14 38
- 2.08474 0 2 cbr 210 ------- 0 10.1 1073741824.0 14 38
r 2.08586 0 5 cbr 210 ------- 0 10.1 1073741824.0 10 18
r 2.08586 0 6 cbr 210 ------- 0 10.1 1073741824.0 10 18
+ 2.08625 10 1 cbr 210 ------- 0 10.1 1073741824.0 23 59
- 2.08625 10 1 cbr 210 ------- 0 10.1 1073741824.0 23 59
r 2.086978 0 4 cbr 210 ------- 0 10.1 1073741824.0 9 13
r 2.08737 10 1 cbr 210 ------- 0 10.1 1073741824.0 19 55
+ 2.08737 1 0 cbr 210 ------- 0 10.1 1073741824.0 19 55
- 2.08737 1 0 cbr 210 ------- 0 10.1 1073741824.0 19 55
r 2.08808 0 3 cbr 210 ------- 0 10.1 1073741824.0 12 28
r 2.08808 0 2 cbr 210 ------- 0 10.1 1073741824.0 12 28
r 2.08849 1 0 cbr 210 ------- 0 10.1 1073741824.0 15 43
+ 2.08849 0 3 cbr 210 ------- 0 10.1 1073741824.0 15 43
- 2.08849 0 3 cbr 210 ------- 0 10.1 1073741824.0 15 43
+ 2.08849 0 4 cbr 210 ------- 0 10.1 1073741824.0 15 43
- 2.08849 0 4 cbr 210 ------- 0 10.1 1073741824.0 15 43